ITEM: TIMESTEP
32500
ITEM: NUMBER OF ATOMS
648
ITEM: BOX BOUNDS pp pp pp
-7.1948756801038387e+00 7.1948756801038387e+00
-7.1948756801038387e+00 7.1948756801038387e+00
-1.5988612622453184e+01 1.5988612622453184e+01
ITEM: ATOMS id mol type x y z fx fy fz
432 144 2 -3.61852 -6.34392 -13.3977 0.764861 -3.22316 4.89522
431 144 2 -3.02551 -4.83225 -13.7185 -3.08144 12.0632 3.63716
324 108 2 -7.17139 -2.32265 -14.7523 6.88952 3.48219 18.7632
430 144 1 -3.54553 -5.39508 -13.031 -4.1452 -15.2932 -0.96792
487 163 1 -2.86058 -3.36505 -14.6054 0.0294186 -1.49803 -6.88768
471 157 2 -2.31342 -5.56796 -11.5646 -3.65852 3.8003 -5.51284
469 157 1 -1.70761 -5.09719 -10.8889 5.35094 -2.21211 13.0542
58 20 1 -2.33585 -2.01213 -10.4819 32.6524 8.3857 -20.2327
339 113 2 -5.20185 -1.40012 -14.7625 2.04151 0.92129 5.46188
337 113 1 -4.30366 -1.15546 -14.2779 16.5995 -1.01338 3.75999
338 113 2 -3.71312 -2.01199 -14.2471 -11.1063 4.54234 -2.42775
610 204 1 -5.74528 -4.16652 -11.7841 -4.40465 3.9246 3.10487
612 204 2 -5.55442 -3.28366 -11.273 5.71349 -4.26953 0.111048
611 204 2 -4.87901 -4.46749 -12.2525 4.76809 -2.47149 0.0966061
488 163 2 -2.04937 -2.78179 -14.3764 7.21481 -1.42671 -3.43073
470 157 2 -0.984698 -4.58199 -11.3933 -2.57217 1.34646 -4.77783
639 213 2 -6.65666 -5.93918 -15.6484 23.9541 5.41927 22.2784
266 89 2 -5.37412 -1.08599 -10.1051 -3.29881 3.8272 3.45195
59 20 2 -1.34284 -1.96389 -10.8416 -28.046 4.36748 14.3793
532 178 1 -6.38015 -6.89394 -11.4237 3.04499 -2.24381 7.96353
617 206 2 -6.93463 -3.33686 -12.5949 3.99998 2.82759 4.08899
637 213 1 -5.78604 -6.25802 -15.1542 -8.15051 -9.79594 -15.2757
638 213 2 -5.27101 -5.66418 -14.5001 -16.2418 9.23765 -5.53028
534 178 2 -6.23371 -5.89369 -11.4842 -0.959967 16.7181 -7.00185
267 89 2 -3.93744 -1.81487 -10.4972 0.168427 -7.21284 3.48042
265 89 1 -4.93938 -1.98721 -10.274 -9.28902 -3.79364 -3.18418
60 20 2 -2.33131 -2.75211 -9.7944 -2.88183 -6.58466 6.1432
322 108 1 -6.54166 -1.76145 -15.3361 -10.8326 -6.34753 -23.7042
521 174 2 -0.130216 -4.64819 -13.4152 1.32521 -3.18235 -6.11337
522 174 2 -0.190405 -3.05963 -13.9373 -0.184628 3.94761 -4.18455
520 174 1 -0.277989 -3.67966 -13.1202 3.78147 -6.37134 18.0763
627 209 2 -3.56636 -6.84811 -9.63161 -14.3318 -21.1426 -8.49271
489 163 2 -2.77515 -3.76018 -15.5414 2.30275 1.72078 -0.646529
130 44 1 -0.38754 -1.94942 -15.1203 -10.6614 -13.1963 -28.7872
616 206 1 6.81115 -2.67538 -13.0563 -28.8822 2.128 8.72856
618 206 2 6.26241 -2.12486 -12.3596 14.798 -10.9242 -7.42089
570 190 2 5.88987 -4.63516 -13.7516 0.400083 -2.24981 1.79786
459 153 2 4.68953 -0.995169 -10.2632 -4.07514 2.44112 10.0697
457 153 1 5.50928 -1.16968 -10.8276 7.50244 -10.1727 -18.9466
456 152 2 2.52648 -2.33101 -13.9466 -4.21251 0.680517 0.776251
454 152 1 2.91791 -3.0361 -14.5668 -2.12489 -8.73417 12.7625
568 190 1 5.65091 -5.33829 -14.4495 -12.9796 -0.283169 29.639
458 153 2 6.25491 -0.446829 -10.7683 -8.37011 3.15478 -0.515113
356 119 2 2.52697 -0.209973 -13.6536 -12.4062 0.162428 -10.0249
355 119 1 1.72196 -0.353971 -14.3257 1.45639 1.86134 0.24791
569 190 2 5.8091 -4.90789 -15.3515 6.59596 -1.87536 -22.005
455 152 2 3.28112 -2.53567 -15.3539 6.10663 5.59439 -20.4965
607 203 1 2.7509 -5.76233 -14.5372 -11.7387 24.5675 -4.58286
609 203 2 2.81303 -4.71765 -14.6963 -3.79675 -20.3107 7.97393
132 44 2 0.277716 -1.2192 -14.9132 17.2669 16.1962 18.2962
201 67 2 4.99406 -6.75051 -15.8609 13.8995 3.80738 9.58012
608 203 2 3.69905 -6.08752 -14.4311 16.1536 -3.22557 2.18997
336 112 2 4.378 -0.558618 -12.254 12.1022 -13.2257 11.5165
248 83 2 1.19531 -6.3036 -14.4938 -19.1825 5.04365 4.19095
247 83 1 0.156848 -6.40015 -14.3153 16.7371 -17.9372 -4.08105
7 3 1 0.329404 -1.61109 -10.6736 -19.7544 -7.45786 -32.7042
242 81 2 2.75875 -6.93686 -12.5375 5.25592 -12.9162 1.18311
8 3 2 1.29437 -1.66416 -10.3655 17 -1.58431 11.1265
245 82 2 5.22615 -0.683248 -15.7074 -6.41464 11.4679 -5.46065
524 175 2 2.69446 -3.32787 -9.93939 2.15268 9.91174 10.9888
523 175 1 2.65503 -2.3547 -9.60381 -3.22561 -2.71402 9.71657
9 3 2 0.317312 -2.06099 -11.6096 -0.896563 8.11584 13.1295
15 5 2 5.48026 -4.64284 -10.4696 9.23331 -9.25975 -6.04436
83 28 2 -4.19938 0.28779 -13.6345 5.55744 2.33422 -2.33575
82 28 1 -4.24606 1.30634 -13.3924 15.6578 -30.2092 3.8121
84 28 2 -5.24668 1.39807 -13.399 -23.7416 17.7111 2.35811
396 132 2 -3.06129 1.41761 -14.9299 -2.46055 4.57327 4.15765
620 207 2 -2.24597 0.230383 -11.4764 9.02525 -3.47778 1.05596
175 59 1 -7.1875 0.906106 -10.9805 -12.0575 -3.4229 -8.67535
533 178 2 -5.57268 7.16139 -10.8813 1.88505 -7.14642 -0.535109
394 132 1 -2.1043 1.55081 -15.2611 20.4221 -13.5542 28.7866
395 132 2 -1.4325 1.26543 -14.5258 -14.097 6.63255 -10.2859
480 160 2 -3.3633 6.03951 -11.2623 2.15153 1.89051 -2.7258
478 160 1 -2.77739 5.75401 -12.0721 -8.80235 -3.38104 3.04763
169 57 1 -1.5945 5.39759 -15.835 18.1646 14.7923 -22.6899
171 57 2 -1.87618 5.12257 -14.9126 -14.7829 -17.2568 10.3689
140 47 2 -6.74713 0.102051 -15.8864 -0.381972 -7.12704 8.03039
479 160 2 -3.21263 4.9202 -12.4997 -0.477314 -0.132605 -8.57432
34 12 1 -3.73229 3.8108 -13.638 0.795192 20.6693 2.56777
36 12 2 -3.70215 2.8033 -13.3819 -15.137 6.36246 -12.2689
619 207 1 -1.88796 0.980484 -12.0624 -29.9765 10.889 -7.83375
437 146 2 -6.85816 3.65154 -9.65678 5.69154 -24.0869 -2.39979
621 207 2 -2.75377 1.41164 -12.4745 23.7914 -12.4503 6.016
318 106 2 -0.804902 5.2768 -10.5901 -3.25635 -14.962 14.3099
249 83 2 -0.17807 7.10561 -14.7318 2.57937 14.3918 1.7664
317 106 2 -0.439125 3.68094 -10.5023 -10.8475 5.33065 13.7018
316 106 1 -0.902609 4.437 -9.96218 20.7165 5.58688 -33.2746
35 12 2 -4.60503 4.08687 -14.1227 9.67888 -9.39855 3.92105
141 47 2 -6.86348 1.5858 -15.056 -1.54391 0.873674 22.3232
363 121 2 -6.51691 3.15913 -12.5364 -6.4449 6.72496 8.42202
438 146 2 -7.1486 4.48409 -10.8635 -17.3791 35.5188 -24.0009
436 146 1 -6.75501 3.59066 -10.6906 7.89526 -11.3256 12.808
361 121 1 -6.75549 2.75778 -13.4435 -16.495 -9.42013 -27.6455
216 72 2 -7.05961 5.09646 -15.1063 -26.5416 3.82101 11.7723
215 72 2 -5.87891 6.38856 -14.9385 -14.8747 -1.16724 -2.56717
177 59 2 -6.76613 0.671493 -10.0909 8.6224 2.7408 18.3163
625 209 1 -4.13023 6.72858 -9.98097 6.78431 22.3454 16.6701
556 186 1 -0.283026 6.31662 -11.8747 26.6593 -0.16616 -12.344
557 186 2 -1.20811 5.88821 -12.1051 -2.43018 17.0225 -3.87454
139 47 1 -6.45008 1.07357 -15.8172 7.37092 3.8132 -12.7908
214 72 1 -6.13215 5.43675 -15.2618 36.933 -4.79584 -13.6082
176 59 2 7.11579 1.93275 -11.0416 8.48944 -2.13873 2.7127
335 112 2 3.85128 0.980059 -12.4146 -3.94726 3.67052 -1.75102
357 119 2 1.91262 0.178624 -15.1854 0.538702 -4.70314 2.30934
243 81 2 2.80947 6.34745 -11.2323 2.12413 -3.24513 -34.5018
334 112 1 3.71843 0.0149895 -12.7543 2.86103 14.9105 -0.111244
246 82 2 4.78919 0.324055 -14.4633 -6.70627 0.538139 -3.32641
475 159 1 1.16833 2.18664 -11.5562 -6.27371 -2.25356 -17.1158
477 159 2 0.67025 1.89229 -12.4038 -0.388627 -0.554547 9.44665
476 159 2 2.1377 2.40672 -11.8096 6.03284 0.966478 0.0167846
146 49 2 6.64241 6.59467 -11.2509 27.5592 12.8661 -7.31686
241 81 1 3.07897 6.51174 -12.2556 -7.36064 23.4389 35.4656
645 215 2 2.13897 4.59566 -14.3382 19.711 -13.335 7.6871
643 215 1 2.95892 4.41497 -13.7174 -28.5968 26.5258 -20.3038
644 215 2 3.02455 5.28406 -13.1173 2.89123 -8.53223 -5.54662
99 33 2 1.35128 1.86802 -9.9489 -3.76022 10.8489 -19.7034
307 103 1 3.79215 2.75635 -12.0672 -4.55809 -20.0175 3.21202
308 103 2 4.41303 3.27103 -11.4515 2.80324 6.10887 -1.03395
309 103 2 3.37673 3.39236 -12.814 12.9308 -2.8367 9.97338
244 82 1 4.65888 0.13961 -15.4611 7.90472 -12.8291 2.55974
145 49 1 6.01098 5.81808 -11.088 -56.0725 -3.97055 12.196
147 49 2 5.05305 6.23514 -11.1481 25.47 -17.2731 -4.29164
362 121 2 6.73203 3.06767 -13.8567 17.4573 4.33827 16.8559
226 76 1 1.10916 3.52131 -15.9083 -2.01414 -22.1698 27.1678
194 65 2 4.74272 4.38692 -14.3762 -19.8855 0.792492 10.3178
623 208 2 1.1931 5.35432 -10.1899 -2.49996 -1.1677 8.82013
622 208 1 2.18055 5.49669 -9.98138 17.047 14.714 -33.6427
558 186 2 0.150854 6.82315 -12.679 -18.5092 -9.17942 18.8472
193 65 1 5.43983 4.4358 -15.1011 11.3108 26.516 -27.7243
195 65 2 5.09458 5.15034 -15.8132 7.07286 -11.458 26.7425
306 102 2 -3.30911 -1.1806 -4.22685 0.425525 -1.72958 2.49953
305 102 2 -4.31242 -2.3011 -3.5291 10.0628 8.10475 3.12527
304 102 1 -3.41073 -1.81026 -3.42462 -15.6652 -3.24863 -8.60241
376 126 1 -2.50355 -5.89208 -8.35007 -8.47508 2.6902 -1.65985
370 124 1 -5.03656 -4.98138 -3.42475 10.0677 15.1054 -1.65047
378 126 2 -1.93042 -5.67083 -9.18458 -2.72135 4.18703 0.141141
349 117 1 -6.41311 -2.64666 -3.37279 20.1518 -4.23211 20.5494
412 138 1 -6.11904 -2.29065 -5.84876 2.9416 1.40195 -30.6313
371 124 2 -5.53383 -4.0654 -3.44374 4.53152 -11.1869 3.85186
413 138 2 -5.59932 -1.5184 -6.25926 12.4673 6.7029 10.0016
414 138 2 -7.00548 -2.16082 -6.34539 -10.883 -9.36781 2.99061
555 185 2 -2.6395 -5.82919 -5.10294 15.4251 -21.4983 -3.82687
553 185 1 -2.32063 -6.74627 -5.49426 -12.9835 17.4559 -5.45698
554 185 2 -2.49869 -6.74877 -6.51374 5.38486 2.07743 14.9664
351 117 2 -6.30711 -2.5151 -4.40441 -5.57027 4.73621 -4.38911
372 124 2 -5.63494 -5.64411 -3.91364 -7.22853 -3.67779 2.7756
369 123 2 -5.61409 -3.42053 -9.05006 1.20953 -7.65214 9.50397
368 123 2 -5.6275 -3.39576 -7.40849 1.84471 4.74052 13.9306
367 123 1 -5.72262 -4.01166 -8.20353 2.12561 4.05675 -24.8846
600 200 2 -3.38202 -4.66492 -3.54066 11.9813 8.96674 2.87967
377 126 2 -3.07688 -5.06569 -8.11512 8.80852 -10.2387 -2.30234
37 13 1 -2.64812 -1.65935 -7.30718 3.4959 -3.42356 -2.1251
38 13 2 -2.1688 -0.937199 -7.86038 6.67924 -0.88694 -1.23661
122 41 2 -0.560755 -0.430232 -9.47974 1.24044 -1.99413 0.831839
39 13 2 -1.94331 -2.33791 -6.99381 -3.48657 0.89719 -0.724965
88 30 1 -0.276528 -3.69725 -6.65905 4.56341 -21.9641 -17.5638
598 200 1 -2.37664 -4.42666 -3.69517 -12.6497 -52.2436 -18.9941
153 51 2 -6.42313 -5.72336 -8.33007 -3.73594 0.4173 6.16021
151 51 1 -6.98182 -6.44045 -7.83671 23.1998 -0.185492 -12.2441
599 200 2 -2.11601 -3.52987 -3.38749 -1.52901 38.2993 11.7539
29 10 2 -3.88151 -0.401081 -6.8115 6.89211 0.932842 9.11266
87 29 2 6.04185 -0.750335 -5.40631 -19.2156 -13.9391 0.678696
90 30 2 0.272455 -4.55916 -6.87824 -15.0116 26.7526 11.8457
120 40 2 5.38383 -2.79416 -8.12375 -5.70428 -9.71432 -19.3056
381 127 2 5.79227 -5.94869 -5.33257 -3.92586 6.02756 -5.90242
118 40 1 5.94061 -2.97578 -7.30895 13.1167 14.1124 31.4709
89 30 2 0.23561 -3.0108 -6.11408 9.56112 -0.137549 8.43243
152 51 2 6.92038 -5.99295 -7.07287 -18.1025 5.39 8.08508
33 11 2 2.61187 -6.80054 -4.22698 12.6873 -1.62914 8.58488
379 127 1 5.31882 -5.70985 -6.21941 43.6998 7.30656 19.6872
380 127 2 4.42136 -6.10047 -6.14952 -38.2732 -12.8667 -0.811809
31 11 1 2.11644 -6.72836 -5.11694 -18.7478 -10.7364 -17.0615
119 40 2 6.48273 -3.84608 -7.32448 -11.4912 0.49651 -10.6537
525 175 2 2.25628 -2.24474 -8.64915 9.46311 -3.96645 -16.5134
285 95 2 1.09746 -1.01908 -5.1082 -1.14305 13.1659 5.13804
538 180 1 4.59782 -1.8873 -4.9664 1.28393 -6.74269 6.26665
283 95 1 1.32928 -1.93634 -4.77795 8.36435 -27.7885 -2.08222
540 180 2 4.80324 -2.47621 -5.77883 8.34553 0.914107 -6.41546
539 180 2 3.66644 -2.16034 -4.66792 -5.26773 4.58391 -1.96243
284 95 2 1.57439 -2.06277 -3.79418 -9.53915 10.3405 -0.349978
67 23 1 1.8812 -0.142372 -7.34062 1.44255 -13.5013 31.0416
13 5 1 5.12331 -4.88159 -9.55815 -15.6155 2.5264 16.8182
14 5 2 5.29991 -5.80745 -9.14869 7.00085 8.3471 -10.3872
280 94 1 6.75848 -5.81131 -3.45276 7.49746 -40.5 -27.701
530 177 2 6.46262 -0.102416 -3.4144 9.2507 1.65649 -12.0964
123 41 2 -0.396126 1.02136 -8.65437 -9.32274 -16.7644 0.0369858
648 216 2 -3.93868 2.45479 -9.43665 2.07948 -0.439415 0.923837
647 216 2 -3.01188 1.14485 -8.92645 0.113382 4.71247 0.0796045
646 216 1 -3.92047 1.61519 -8.85623 4.61831 -2.27201 2.71159
133 45 1 -0.938081 3.18126 -7.11769 30.7544 -10.9191 -6.88211
135 45 2 -1.58599 3.45439 -6.37877 -18.5853 1.01055 0.134989
180 60 2 -5.25088 0.890366 -8.37656 -22.8406 -14.1121 -8.32088
179 60 2 -6.63085 0.540333 -7.45099 0.519907 -5.79119 -4.91938
178 60 1 -6.1724 0.360947 -8.35122 17.6453 6.87131 4.38217
121 41 1 -0.920911 0.119529 -8.68878 3.69191 21.1035 -1.74219
12 4 2 -5.83802 6.69394 -7.28805 -4.2197 3.12483 -2.23088
134 45 2 -1.07381 3.79487 -7.92393 -8.32671 -0.398881 -4.09534
560 187 2 -1.73392 5.24727 -8.88211 -6.10136 -1.2022 5.10048
626 209 2 -4.43111 6.2223 -9.12271 -0.567458 1.14348 -5.09375
10 4 1 -5.29499 5.86857 -7.5506 10.0922 -10.1158 -4.87148
30 10 2 -4.24661 1.21035 -6.45899 4.2777 -10.4624 3.0364
11 4 2 -5.38593 5.08184 -6.91219 -3.36955 3.2928 3.4152
365 122 2 -2.90381 4.72481 -6.32834 -9.19508 -26.505 1.34063
366 122 2 -3.58152 4.02087 -4.98434 -5.43364 -1.39627 0.376461
364 122 1 -3.14613 3.80131 -5.87951 2.8983 35.6779 5.21922
561 187 2 -2.28645 6.67432 -8.17799 -1.0013 -12.737 1.27121
559 187 1 -2.26824 5.64274 -8.07904 8.49055 15.0981 3.86353
28 10 1 -4.18537 0.258376 -6.07692 -5.09138 9.54904 -5.70016
420 140 2 -0.156221 5.30398 -3.69159 4.61345 -30.6536 27.8151
419 140 2 -0.851864 6.56267 -4.44767 11.1556 -1.49421 -4.39519
333 111 2 -4.75022 2.88396 -3.57774 -3.1236 -19.8027 0.816543
332 111 2 -5.92337 3.96127 -4.10625 -16.5256 -1.67232 -14.1147
329 110 2 -0.0133932 2.18709 -5.94973 2.76556 12.0726 -2.21397
159 53 2 -2.49251 1.62238 -4.52708 -0.839872 -14.9173 19.109
157 53 1 -1.98103 1.13715 -3.76605 13.4298 12.6324 -24.5618
382 128 1 -7.19475 3.03912 -8.16856 -22.2926 -6.18095 5.82745
383 128 2 -6.35612 2.9681 -7.60792 1.47994 0.0880803 6.68587
330 110 2 -0.195848 1.35695 -4.56028 7.75483 17.546 -0.349195
331 111 1 -5.07117 3.8334 -3.57657 21.7447 19.4504 4.51664
601 201 1 -7.19291 3.96516 -5.4626 -23.8166 6.6677 2.16965
97 33 1 1.27061 2.15369 -8.97085 5.496 -2.36886 36.77
85 29 1 6.6635 0.0265252 -5.54926 11.6987 29.3046 2.58968
636 212 2 2.78949 6.31141 -5.97373 17.2299 0.00707062 -1.80252
32 11 2 1.36454 6.94298 -5.07765 0.533628 13.8116 9.92708
86 29 2 6.14651 0.858534 -5.89942 2.16387 -17.6805 -2.44206
418 140 1 0.0311142 6.03183 -4.33103 -13.0252 39.4205 -34.6094
634 212 1 3.50625 5.60213 -6.2129 2.2135 -0.382506 -6.75267
624 208 2 2.52265 4.998 -9.17929 -8.81875 -3.8286 19.245
384 128 2 6.40682 2.49739 -7.74195 14.9104 9.37235 -8.03153
80 27 2 4.41053 1.18217 -7.84701 -2.2427 -9.81161 -15.1464
328 110 1 0.440861 2.02968 -5.03899 -11.0457 -27.0108 8.29589
98 33 2 1.53275 3.1355 -8.8036 -4.99456 -11.5062 -5.9395
79 27 1 5.02945 1.47171 -7.1125 -7.10879 13.8197 16.2444
473 158 2 0.520688 4.1259 -7.3851 1.14054 12.5083 5.75001
81 27 2 4.33138 1.87686 -6.44935 8.75164 5.73881 -5.58283
472 158 1 1.07398 4.97752 -7.59212 -4.0501 -13.946 4.42063
117 39 2 6.72229 6.19437 -7.64417 -2.07354 9.1229 -1.71672
474 158 2 0.920874 5.72805 -6.91932 -4.13159 -6.89084 -1.38113
116 39 2 5.81308 5.53652 -8.80161 -0.255848 -6.06826 -22.6899
115 39 1 5.82021 5.7514 -7.82825 -8.20297 -5.75511 19.1217
68 23 2 1.39756 0.278217 -6.54481 5.74367 -0.494026 -9.99634
69 23 2 1.73369 0.449843 -8.12687 -5.0428 19.9464 -22.6707
635 212 2 4.13153 5.88793 -6.98467 0.0689717 0.132479 8.86196
602 201 2 6.4953 4.34788 -6.11968 15.7664 -0.911805 2.45425
229 77 1 3.21348 2.97017 -5.86733 10.6138 -9.25357 3.22866
231 77 2 3.49877 3.91293 -6.18792 -4.29408 5.52105 4.09777
230 77 2 2.38976 3.11812 -5.29607 -10.07 -0.634739 0.892245
257 86 2 2.78231 1.37631 -4.00459 3.08415 -13.4943 -3.23996
504 168 2 4.97828 2.37532 -4.05869 -4.20558 -4.07874 5.53831
502 168 1 5.83651 2.73178 -3.64552 -6.32507 15.0339 -11.3673
603 201 2 6.58833 3.55226 -4.70452 16.2706 1.24129 -6.9334
296 99 2 0.56297 3.19352 -3.28188 0.262037 -7.79087 -8.47634
340 114 1 -2.84133 -0.0334204 -1.3906 -2.2339 39.6407 7.92249
341 114 2 -3.21493 -0.919054 -1.61298 -1.26129 -39.7591 -11.7658
261 87 2 -2.80236 -3.96257 0.359204 -1.05031 -0.189656 13.6024
232 78 1 -4.82597 -0.773666 1.19479 17.1083 -0.169394 26.825
234 78 2 -5.54366 -0.0426699 0.978143 0.191996 -4.95296 -14.2955
260 87 2 -4.40326 -4.42995 1.12331 21.6909 2.95829 9.06071
259 87 1 -3.82455 -4.10506 0.320805 -18.6182 -4.11552 -28.7688
354 118 2 -5.49736 -3.79418 -0.539495 7.91773 -0.393751 7.85875
548 183 2 -5.07039 -5.8075 2.84209 -9.06922 0.149609 1.94404
549 183 2 -6.18272 -4.8727 2.05706 -11.5855 2.16929 2.9311
353 118 2 -6.16031 -2.70466 -1.552 -3.76682 3.35681 -2.3267
547 183 1 -5.24152 -4.86769 2.43925 2.28413 -22.1828 -11.1234
352 118 1 -6.23995 -3.09977 -0.609836 6.36511 8.05629 -16.1609
233 78 2 -4.7455 -1.59537 0.599444 -12.2582 2.26254 -12.4216
18 6 2 -0.796511 -4.3006 -0.694959 -4.08683 2.00366 19.2111
17 6 2 -1.05906 -3.97013 1.01647 7.33358 3.94506 -1.04257
16 6 1 -1.15007 -3.63353 0.0336155 -0.791771 -14.3499 -24.285
275 92 2 -0.28891 -0.403581 -0.46603 10.1342 -15.7135 -5.69997
253 85 1 -7.10176 -7.15649 -0.78797 16.0352 -20.4528 -37.8575
373 125 1 -3.60686 -6.51721 -1.30428 8.37002 5.89115 28.5475
375 125 2 -3.58747 -5.66045 -0.720144 6.25193 -12.0496 -2.84424
374 125 2 -4.31578 -6.28761 -1.96766 -15.497 3.09832 -23.2644
500 167 2 -0.608616 -5.31936 -3.0225 -17.3575 -2.2717 7.14141
575 192 2 -5.85008 -1.41731 2.43792 1.32716 -2.15637 -1.9983
198 66 2 -0.646103 -1.08969 -2.35465 -22.3899 -4.03595 -0.00141368
196 66 1 -0.280563 -1.85548 -1.80114 29.1848 -4.21651 3.91606
197 66 2 -0.875476 -2.56015 -1.32366 -5.8494 16.2873 -3.75026
302 101 2 -0.925598 -4.89193 3.07795 2.30709 -9.27047 0.0142911
499 167 1 -0.128672 -5.33808 -2.11908 8.32024 8.03837 -9.70446
301 101 1 -0.934004 -3.97478 2.63464 -8.86722 15.0332 2.45055
91 31 1 -0.820114 -6.9163 2.70858 -2.75406 -19.3832 4.73878
565 189 1 -2.1697 -0.0823195 2.30671 -15.4388 -4.32697 17.3246
567 189 2 -2.93015 -0.577058 1.79855 16.221 8.89144 -3.03849
350 117 2 7.02234 -2.92498 -3.10106 -3.92335 -1.12437 -2.2934
209 70 2 5.19683 -2.88943 -3.14508 1.00243 1.00478 -9.9641
208 70 1 5.65622 -3.61808 -2.59755 -21.5998 18.2676 13.9859
210 70 2 5.1293 -3.54222 -1.7145 9.97521 -6.21654 -2.76665
50 17 2 6.00378 -2.99555 1.42669 -9.71427 -0.706038 18.5706
49 17 1 6.00067 -3.69747 0.69172 -19.481 -10.8783 -1.97141
254 85 2 6.84416 -6.30712 -0.591943 -14.5207 32.0229 16.6214
450 150 2 4.78108 -0.804449 -0.525675 1.1335 10.3304 17.5452
448 150 1 4.45294 -1.26733 -1.36642 0.563493 -5.32109 -21.9829
449 150 2 3.56248 -1.71922 -1.13608 -10.3151 -2.0949 11.0322
6 2 2 4.90308 -0.362508 1.67948 3.5455 -17.715 15.0565
281 94 2 6.57482 -4.84358 -3.19098 -15.3471 5.66877 18.2858
490 164 1 2.27382 -2.45388 -0.217288 -3.82015 19.0544 -8.69204
51 17 2 6.5873 -3.27789 -0.0222057 22.9535 -1.02471 -9.13182
501 167 2 0.817157 -5.12126 -2.39834 7.37685 -1.01098 8.19981
236 79 2 4.2091 -6.85884 -2.26088 -13.0133 -21.2271 -13.6614
491 164 2 2.67034 -3.36004 -0.00062891 5.40132 -19.626 4.69455
492 164 2 1.25115 -2.4479 -0.220626 1.97331 -2.20572 -0.918808
282 94 2 6.6155 -6.55443 -2.75136 3.97371 15.739 -0.198861
398 133 2 4.6848 -4.57347 0.264099 -21.9368 9.02835 6.5412
397 133 1 3.69862 -4.85293 0.012641 25.4792 3.58521 -4.72765
399 133 2 3.7761 -5.84223 -0.159155 -10.4293 -8.70758 4.09086
511 171 1 4.92411 -2.25024 2.85692 -19.0827 17.1888 -6.03948
512 171 2 3.89445 -2.37227 2.9172 24.1294 -3.8245 3.45855
531 177 2 5.70972 -0.535618 -2.06239 -5.0868 -3.45234 11.8276
111 37 2 1.62691 -5.0313 2.00759 -3.41584 -3.53775 -2.47141
588 196 2 5.74913 -5.74565 3.01606 3.8515 5.05151 4.25257
586 196 1 5.51369 -6.71063 2.76153 -7.4586 -20.4036 -15.3258
110 37 2 1.1748 -6.34101 2.95657 -15.4393 -15.1753 -2.6245
109 37 1 1.71086 -5.49532 2.90607 15.7927 20.9697 2.56127
587 196 2 4.55038 -6.90498 3.07319 1.0055 -2.16174 3.83478
342 114 2 -3.7172 0.526972 -1.53658 8.3201 2.81659 10.1773
298 100 1 -3.77194 4.9867 -1.51362 -2.63091 17.1775 -3.99967
299 100 2 -3.97122 5.9844 -1.29308 4.94393 -10.0161 -3.76036
300 100 2 -4.07488 4.80616 -2.49381 -4.42266 -3.34503 13.8278
158 53 2 -2.5212 0.713901 -3.00488 -4.60738 0.843566 1.3358
278 93 2 -5.97318 0.742067 -2.20012 4.309 1.56175 9.56224
566 189 2 -1.28453 0.119925 1.83113 -4.85864 -9.72922 -18.4013
274 92 1 -0.418099 0.376724 0.162168 -33.3091 18.5907 -2.38151
276 92 2 -1.36118 0.72996 -0.12118 16.1126 -9.11289 3.43344
287 96 2 -2.07232 6.77169 -0.564795 12.5115 4.21469 5.48598
277 93 1 -5.12299 1.15318 -1.77781 -14.2073 23.6268 -4.83124
279 93 2 -5.36573 2.03912 -1.27879 3.47144 -21.7131 -7.02551
546 182 2 -3.38227 1.65364 1.78176 -2.12934 12.6656 -0.679987
92 31 2 -0.941614 7.14781 1.76594 0.733879 16.5121 -33.5673
93 31 2 -0.960516 6.52082 3.03268 4.52318 -3.90831 25.7763
592 198 1 -5.93331 3.66176 -0.0968393 15.2976 -12.6172 -16.7074
594 198 2 -6.72149 4.28808 -0.252005 2.85282 5.47881 2.2072
593 198 2 -5.03395 4.02163 -0.488238 -17.5156 1.21262 6.6125
150 50 2 -5.45356 5.0117 1.6936 4.06426 -13.2656 2.57545
286 96 1 -1.2119 6.46006 -0.0780868 -15.568 20.1144 0.74816
288 96 2 -1.09182 5.48253 -0.267866 1.86416 -20.2778 -0.933615
149 50 2 -4.57671 5.72432 2.79188 -1.05864 -6.09625 6.57535
535 179 1 -1.72521 3.64074 -0.455517 32.6983 26.7598 -39.3162
536 179 2 -2.48192 4.20557 -0.902065 -3.45266 -10.2955 8.62521
148 50 1 -4.59825 4.85448 2.24694 2.10611 19.0087 -10.9772
545 182 2 -3.71745 3.35806 1.65693 -10.0584 -3.9768 6.21033
537 179 2 -2.11619 3.00617 0.242101 -21.7544 -4.53092 13.9015
168 56 2 -2.42487 4.63563 2.88655 -9.89963 -10.699 -9.61819
544 182 1 -3.19465 2.54478 1.30113 2.50166 -15.3072 7.73317
167 56 2 -0.905977 3.84547 2.856 -6.13062 -7.37376 -5.15892
498 166 2 -6.50525 2.05051 0.516542 2.17904 -6.29556 6.95529
297 99 2 -0.59986 3.73563 -2.20273 14.1359 -1.16504 1.22937
496 166 1 -6.6142 1.08061 0.87214 -11.5503 7.09117 -3.75206
212 71 2 -5.40583 0.219882 3.02236 7.08581 -1.77582 -8.53679
258 86 2 3.59265 0.553067 -2.63236 -4.2062 -4.57302 -11.1946
256 86 1 3.07247 1.33641 -3.03285 1.81507 18.8101 13.2652
255 85 2 7.12237 6.51806 -0.0770773 0.238501 -2.86723 17.5711
311 104 2 1.14458 6.78722 -0.590651 8.31586 -5.25327 28.8669
4 2 1 4.96529 0.324121 0.949797 6.28704 9.54658 -13.0603
235 79 1 3.6841 7.04855 -3.01163 -1.51228 19.8527 7.73319
5 2 2 4.22326 1.00138 1.15671 -8.48341 7.35412 -1.82958
237 79 2 3.27201 6.09987 -2.81205 17.7467 9.12245 5.37468
20 7 2 0.113861 3.23163 0.277128 -7.80422 15.3486 -8.91367
21 7 2 0.123374 1.72865 0.720635 11.4785 3.90749 11.2697
312 104 2 2.23968 5.70993 -0.775806 14.4092 -13.0863 -0.455897
310 104 1 1.85787 6.27006 -0.0278641 -22.4562 19.6871 -31.136
506 169 2 6.34178 4.83765 1.40786 15.212 5.13896 -9.66671
507 169 2 6.30599 6.37454 1.81911 4.57634 17.9755 6.15281
505 169 1 6.91541 5.71602 1.32685 -20.3191 -21.7417 6.66627
19 7 1 0.464453 2.67195 1.03929 2.95946 -12.07 5.7457
268 90 1 3.11718 2.2845 1.66335 -21.7927 0.0470666 10.7249
269 90 2 3.08235 2.64243 2.60879 16.931 0.298189 8.74406
270 90 2 2.10567 2.37987 1.4975 -2.72636 -8.52609 -20.3048
183 61 2 4.40867 3.73184 0.827878 -12.7443 -4.76437 1.19253
529 177 1 6.47325 0.0503069 -2.41486 6.7006 10.9487 -7.28762
182 61 2 5.53305 2.53127 1.1665 -7.20171 34.5924 -2.61149
181 61 1 5.38303 3.56352 1.03225 28.8219 -26.3173 1.59661
497 166 2 6.79064 0.778395 0.823025 2.98032 2.16334 -0.378984
503 168 2 6.14776 2.20011 -2.85032 1.37186 -15.1191 12.8049
57 19 2 3.84252 3.97617 -2.61105 13.9059 -11.1276 -5.27721
56 19 2 2.27059 4.02685 -2.11765 -2.05705 3.15576 -7.47815
55 19 1 3.08781 4.59389 -2.37937 -16.7552 3.43998 16.6804
295 99 1 0.34598 3.9028 -2.58982 -18.994 -0.566358 11.8246
321 107 2 1.08032 4.22366 2.04667 -0.614854 1.45086 -6.47627
319 107 1 1.58411 5.05502 2.36017 3.11636 3.21883 -7.32215
320 107 2 1.72166 5.73997 1.57717 -6.17613 -14.7346 2.27558
462 154 2 -3.12659 -3.01352 3.34709 17.4426 8.64005 -20.6884
303 101 2 -0.506311 -3.27835 3.28869 4.34758 -17.0978 -9.89887
53 18 2 -5.17093 -7.10543 4.7771 5.61968 0.659463 -10.8958
485 162 2 -2.5604 -3.2069 5.35064 0.619076 -15.5609 -8.44602
460 154 1 -3.74769 -3.52051 3.93338 -14.0566 -10.9186 27.4212
461 154 2 -4.29975 -4.2381 3.37917 9.14116 19.2695 6.67653
574 192 1 -6.19014 -1.97527 3.22733 -5.89195 -0.907908 -14.9984
484 162 1 -1.73462 -3.54015 5.86564 6.36688 3.46067 5.16556
576 192 2 -5.52867 -2.73721 3.32672 2.6621 -8.80185 7.79836
62 21 2 -4.1496 -4.63382 5.76098 16.4708 24.3307 -13.3627
486 162 2 -1.55521 -4.57842 5.73981 -11.9672 15.2005 0.00722269
326 109 2 -6.80603 -3.32424 8.0038 -6.06211 8.14167 5.81101
192 64 2 -2.20164 -6.87575 5.39913 2.71834 30.3633 12.2496
402 134 2 -2.32312 -2.32984 6.97061 0.831289 9.20069 4.81319
400 134 1 -2.27497 -1.44167 7.51027 16.3559 -4.5407 -3.42305
240 80 2 -6.12265 -5.59167 6.3133 12.5197 -7.84092 6.62534
190 64 1 -1.49514 -6.10678 5.52209 -16.5227 -41.902 -5.83272
191 64 2 -0.736921 -6.57417 5.03803 16.4445 4.99572 -6.33489
238 80 1 -6.99946 -5.83844 6.80051 -23.1679 -7.35351 -6.41719
528 176 2 -0.236208 -2.89311 5.07638 -13.9582 -6.74752 19.7517
61 21 1 -4.58924 -5.43658 6.13587 -0.935583 -28.5363 -1.42161
493 165 1 -4.79612 -0.577797 7.27909 8.27287 12.1359 13.9922
494 165 2 -5.02056 -0.673342 6.30602 -7.53955 0.682372 -20.7056
401 134 2 -3.19553 -1.00649 7.66341 -6.10099 -6.45514 -5.7216
577 193 1 -5.53873 -2.31324 9.07799 -8.31289 -23.0951 13.5253
578 193 2 -5.21353 -1.69099 8.32846 2.86295 11.6936 -5.24389
291 97 2 -1.00929 -2.10602 8.41714 -2.50876 -14.8342 25.4653
434 145 2 -2.20502 -5.07193 9.20856 -26.6564 1.34697 -16.6089
294 98 2 -0.360774 -6.35548 7.09168 8.58707 13.368 19.591
77 26 2 -1.14454 -0.0848624 7.25773 -1.07466 4.67905 13.8997
63 21 2 -4.10977 -5.75945 6.99642 -5.86867 10.018 -3.7159
289 97 1 -0.578051 -2.49838 9.29611 2.46949 11.9657 -11.8573
41 14 2 -4.68124 -4.29337 8.99601 -2.47118 7.30077 -2.36573
40 14 1 -4.12197 -5.11359 8.77881 9.72408 -10.3688 14.2859
42 14 2 -4.42722 -5.87139 9.44025 -1.45324 13.0988 -13.6725
293 98 2 -0.177039 -5.54657 8.61544 -6.37994 -4.89136 -1.63088
101 34 2 6.46216 -2.91611 5.51822 7.05719 6.93195 -1.35411
239 80 2 7.00614 -4.91937 7.08995 -4.13301 -3.06982 3.8378
100 34 1 6.49102 -1.93222 5.20545 -17.355 8.59184 -14.527
526 176 1 0.552197 -2.78617 4.45444 36.4658 25.4797 -3.78629
102 34 2 6.94304 -1.85409 4.25422 14.4145 -12.5711 21.4706
513 171 2 5.37554 -2.1544 3.7746 -7.5949 -8.49116 -2.78081
155 52 2 5.37122 -4.35242 4.27293 -11.6089 0.519061 -2.63434
154 52 1 6.34772 -4.60112 4.09005 3.61044 2.03427 7.32414
325 109 1 6.66762 -3.47406 7.55695 3.38546 -0.0195835 -1.91785
112 38 1 2.90045 -6.20334 8.84366 11.9616 -3.7869 20.0239
114 38 2 2.4871 -6.14164 7.93817 -18.0411 2.28112 -23.4183
113 38 2 3.59516 -5.47664 8.88842 16.153 15.8552 3.06508
527 176 2 1.43985 -2.60948 4.96559 -22.3262 -10.192 -5.25313
605 202 2 5.83571 -0.41352 4.44889 18.7851 23.8957 -10.7008
65 22 2 1.44619 -4.26833 7.17953 -2.08343 -1.43823 4.17044
404 135 2 1.02026 -0.667029 3.77567 -7.2806 23.8255 -7.81638
66 22 2 2.27413 -2.83328 7.42957 4.67297 12.8789 16.9983
581 194 2 2.72562 -4.63281 3.8413 21.7867 -8.45771 4.66914
64 22 1 2.22454 -3.67519 6.88771 -3.96693 -15.0053 -25.4334
156 52 2 6.60738 -5.33797 4.74204 3.49253 -2.27939 3.96191
582 194 2 3.07118 -4.01006 5.30369 13.4533 -9.08323 -1.68774
580 194 1 3.5437 -4.34719 4.44245 -27.8748 13.902 7.00111
327 109 2 5.89276 -3.1729 8.14929 4.89575 -2.00913 2.341
292 98 1 0.297158 -6.00527 7.82516 -6.59859 -3.10562 -21.1951
26 9 2 4.57664 -1.42495 8.00246 -5.2059 -14.4697 10.7141
25 9 1 3.89075 -1.97581 8.5833 21.7852 20.878 -20.1207
27 9 2 3.25319 -1.21828 8.80782 -13.131 0.404637 7.70235
446 149 2 1.44517 -0.0336451 9.36927 -19.0934 8.51659 -3.04135
126 42 2 6.5779 -0.211431 8.03943 -17.9021 0.42517 -10.4734
124 42 1 5.78818 -0.424277 7.40481 31.2195 -13.1363 -2.16447
272 91 2 4.48728 -3.33054 9.23472 -10.5457 -7.29574 18.8906
125 42 2 6.22553 -0.916164 6.58414 -15.1081 6.55712 12.0073
95 32 2 -3.02262 5.91059 6.34875 -2.5059 3.92728 4.04657
166 56 1 -1.48718 4.57161 3.2581 7.44419 20.2646 10.6011
54 18 2 -6.36758 6.54352 3.99002 -23.507 -13.248 -0.861047
52 18 1 -5.52784 7.0588 3.83138 18.6686 21.1976 4.75082
94 32 1 -3.46792 6.14656 5.45289 8.71594 1.45111 14.8059
96 32 2 -2.94974 5.69257 4.71952 5.98983 -10.5112 -10.1672
563 188 2 -3.43766 2.24428 6.05294 -6.30505 -1.32335 1.88586
389 130 2 -5.14221 5.13747 5.32072 3.34006 4.25869 0.470925
388 130 1 -5.6335 4.31646 4.97487 4.58851 -9.49423 4.52567
443 148 2 -1.68368 0.592952 3.72418 -0.344022 4.73093 1.45488
313 105 1 -2.13695 6.10802 8.09863 0.130533 -6.69675 -7.76542
315 105 2 -2.75748 5.44318 8.54674 -9.52508 -3.20713 3.11487
390 130 2 -6.61775 4.55955 4.75344 0.234082 -1.85496 5.49431
213 71 2 -4.99769 1.42582 4.10336 1.02004 1.0397 4.44936
495 165 2 -4.57825 0.426655 7.47152 -5.06484 -2.36369 -0.403074
562 188 1 -3.69913 2.42256 5.07842 -8.14487 8.62132 8.06337
564 188 2 -4.44358 3.15181 5.1613 1.36132 -3.84369 -11.8162
589 197 1 -4.31382 2.01329 7.8295 31.2703 6.60186 19.2329
23 8 2 -0.693757 2.60415 6.96559 -1.76471 9.55927 6.18472
22 8 1 -0.576604 3.63618 7.06129 13.4728 -14.5878 -15.835
24 8 2 -0.750209 3.93646 8.00148 -9.01626 -0.119954 15.7249
442 148 1 -1.44078 1.27534 4.46976 8.36216 -14.1035 -4.33527
591 197 2 -3.56551 2.47903 8.43916 -30.484 -11.3131 -21.1489
590 197 2 -5.21689 2.50731 7.94964 1.71043 6.96018 -1.2007
78 26 2 -1.19881 0.99832 6.12346 12.721 7.73923 6.75517
444 148 2 -2.31299 1.81237 4.59682 -5.57269 8.47894 1.95901
76 26 1 -0.849884 0.892095 7.10295 -7.14208 -8.33777 -25.9133
138 46 2 -6.87703 4.42662 7.92422 -6.53354 25.4808 -6.13717
314 105 2 -1.29901 6.12424 8.6597 6.45237 8.81598 3.63877
211 71 1 -5.62289 0.635026 3.91526 3.88655 11.3998 6.68423
137 46 2 -6.98272 3.0029 7.01577 -7.39659 6.95476 -14.3163
136 46 1 -6.61594 3.44712 7.86309 8.97649 -34.0348 17.6964
519 173 2 -1.58901 3.1994 9.54366 -12.6429 -3.12381 8.39945