ITEM: TIMESTEP
16000
ITEM: NUMBER OF ATOMS
648
ITEM: BOX BOUNDS pp pp pp
-7.2557507686800635e+00 7.2557507686800635e+00
-7.2557507686800635e+00 7.2557507686800635e+00
-1.6123890597067319e+01 1.6123890597067319e+01
ITEM: ATOMS id mol type x y z fx fy fz
142 48 1 -5.33664 -1.73843 -11.0423 -8.80061 14.8843 -1.36653
143 48 2 -4.52445 -2.32737 -10.8703 4.37036 -1.09869 -2.71281
424 142 1 -5.7057 -4.95564 -12.6664 7.14542 25.2921 -3.77319
426 142 2 -5.93606 -4.49706 -11.7819 -0.966289 -2.16353 0.89074
31 11 1 -3.33268 -2.93574 -12.4332 -6.40309 -35.1419 23.5248
33 11 2 -2.76506 -2.36527 -13.019 17.4212 18.014 -21.9097
470 157 2 -5.11076 -0.665523 -12.8741 2.08191 0.899481 9.68181
425 142 2 -5.79485 -5.95151 -12.6147 -6.18961 -18.7394 1.75148
144 48 2 -5.8458 -1.48694 -10.1831 4.28447 -10.5215 -7.86049
32 11 2 -4.00462 -3.45777 -13.0056 1.11052 8.12685 -5.21194
361 121 1 -0.204787 -6.54761 -13.4208 -22.1746 -46.1432 25.887
13 5 1 -1.20124 -1.70415 -14.0596 14.0912 13.782 5.55082
15 5 2 -0.339172 -1.89676 -14.5807 -10.9461 -2.49347 3.01601
14 5 2 -1.30914 -0.676681 -14.0169 -2.75854 -12.8352 1.93594
404 135 2 -0.137295 -4.69548 -16.1065 14.6214 1.43413 9.58405
281 94 2 -6.36272 -0.223156 -15.4549 -3.92388 12.6341 -0.215855
11 4 2 -7.18188 -1.05048 -13.8636 2.24001 -4.24192 4.00572
12 4 2 -6.82838 -1.54543 -12.2532 1.95751 0.0342302 -4.412
280 94 1 -6.30353 -1.23526 -15.5787 5.37649 -10.4079 2.25837
362 121 2 -1.14364 -6.24533 -13.0854 16.2062 10.2762 -4.16572
454 152 1 -0.267761 -2.60886 -11.0377 9.6642 2.43061 -14.4768
456 152 2 -0.552761 -2.10854 -11.8873 -4.30912 -6.7733 -0.800118
308 103 2 -2.79113 -4.71224 -11.9584 -1.63368 -5.04301 -5.05259
118 40 1 -5.35842 -6.98146 -10.0769 -7.74034 -2.66652 -17.2937
309 103 2 -3.25846 -6.35058 -12.1134 -13.5806 -1.72923 -4.73016
307 103 1 -2.50056 -5.70552 -11.9562 11.9113 10.8763 4.90369
236 79 2 -2.556 -5.73335 -10.1604 2.40977 3.49147 -0.0731421
492 164 2 -5.3313 -4.05088 -14.1936 3.32878 5.08669 -7.53634
490 164 1 -4.76928 -3.47093 -14.8474 4.73506 -11.7139 8.72726
491 164 2 -5.29796 -2.69309 -15.2484 -6.11971 1.28598 4.09485
27 9 2 -2.92269 -3.43685 -15.988 -3.48202 3.04498 2.88168
162 54 2 -2.39511 -6.12575 -15.9272 7.09936 3.02086 -6.12639
405 135 2 0.62987 -5.05982 -14.6768 2.20981 -4.04303 -4.65274
393 131 2 1.15159 -3.03748 -16.1109 -10.4127 3.27615 -3.5104
81 27 2 0.0830718 -0.91037 -10.4714 -9.94384 3.49837 -2.83936
503 168 2 7.03867 -6.92778 -11.9617 7.96484 -13.5341 -14.1191
403 135 1 0.730502 -4.54795 -15.56 -17.761 9.17496 9.44437
635 212 2 4.38246 -3.7167 -10.2159 16.9126 3.45512 8.10791
145 49 1 5.33226 -6.04481 -11.6062 -4.28359 -3.25691 16.2219
146 49 2 4.43686 -6.54026 -11.499 6.70974 1.18981 -6.40584
634 212 1 5.28213 -4.04077 -9.76048 -10.7713 -1.34507 -6.62751
147 49 2 5.29655 -5.25329 -10.9363 6.04677 -3.09345 -8.86657
10 4 1 6.95377 -1.30471 -12.9413 -3.13289 2.33315 0.660683
516 172 2 1.41448 -6.57341 -13.7397 -1.07962 -0.345161 -6.74205
170 57 2 4.15766 -2.89438 -14.3165 23.0272 4.69858 -9.35473
169 57 1 3.42633 -2.96989 -13.6283 -27.6557 -0.902594 0.773659
171 57 2 2.63041 -3.38819 -14.1195 4.82068 -0.145821 8.17689
83 28 2 4.73194 -0.60474 -13.2969 -3.79298 7.51051 -0.270182
206 69 2 2.39712 -2.29397 -10.328 3.23356 -5.34382 7.39237
205 69 1 3.17426 -2.768 -10.785 -8.21927 9.00102 -7.90917
207 69 2 3.10561 -2.52372 -11.7824 8.94168 -10.9639 -3.79985
189 63 2 5.53809 -4.45423 -15.6015 1.93328 10.2191 5.6138
187 63 1 4.9582 -5.2534 -15.8378 -17.5881 -10.0143 5.69401
455 152 2 0.0820513 -3.53732 -11.2754 -0.235991 -1.59388 -3.10977
188 63 2 4.10637 -5.24571 -15.2511 10.7552 -7.37557 -4.77497
192 64 2 4.8165 -0.304515 -9.74292 -4.72038 -5.51306 7.43808
225 75 2 2.64774 -0.762242 -16.1061 -6.46904 -1.51904 -7.10758
507 169 2 6.31011 -2.41457 -9.74782 -8.33649 -26.4745 12.9264
505 169 1 6.67389 -1.59322 -10.184 -22.942 33.5768 -10.5635
506 169 2 6.17476 -1.55041 -11.0944 15.5231 1.12337 7.55363
514 172 1 2.40502 -6.5073 -14.0228 3.04125 -6.47723 2.31813
273 91 2 2.10606 -7.17493 -10.2111 -11.6418 8.36083 -4.88546
384 128 2 6.5457 -2.68329 -15.0839 -4.38299 7.55256 -0.362641
382 128 1 5.59738 -2.65571 -15.473 5.6613 -5.19236 -4.30842
469 157 1 -4.45606 0.0318918 -13.2265 9.82206 11.0687 -17.0808
471 157 2 -4.76074 1.00539 -13.1119 -4.07333 -7.57817 7.4298
363 121 2 -0.262041 6.94012 -13.0829 4.08662 45.3422 -18.9275
322 108 1 -6.78736 1.47289 -15.0233 -4.77604 19.5843 -29.7241
488 163 2 -4.04369 0.180837 -15.016 0.211416 -15.1544 -2.07463
141 47 2 -5.19462 2.87532 -12.4863 -1.96695 -1.64546 -19.3356
139 47 1 -4.17686 2.82838 -12.6994 14.7137 1.48326 11.3302
621 207 2 -2.36578 1.01 -12.9604 -8.78315 -3.17342 2.84055
555 185 2 -0.207399 3.66045 -15.2876 -0.317362 -11.2475 -9.5602
553 185 1 -0.0861516 2.61542 -15.2204 -1.86727 24.0553 24.1713
140 47 2 -3.81808 2.91418 -13.6558 -15.03 -1.57963 -7.52033
619 207 1 -1.35214 1.01064 -12.8935 0.802142 -8.26157 7.3693
620 207 2 -0.991361 1.68442 -13.5541 8.67208 7.19211 -9.25596
294 98 2 -1.80421 5.32533 -12.3754 4.25429 -0.454476 -1.34589
423 141 2 -0.269566 5.4155 -14.1877 0.858683 -2.96309 -15.5538
539 180 2 -4.27862 5.50229 -13.6292 1.40975 -10.3565 4.66511
292 98 1 -0.828146 5.53007 -12.6287 -4.72325 5.23481 10.5825
80 27 2 -0.575059 0.461617 -11.2928 4.5898 -9.78205 5.15729
450 150 2 -3.83149 4.41609 -10.3442 3.5758 -4.8545 -3.57589
448 150 1 -3.14301 4.62637 -11.0828 0.706609 8.03492 -1.40531
79 27 1 -0.231143 0.0684171 -10.3926 -2.38915 11.0341 -5.86771
502 168 1 -6.81565 6.79956 -12.2052 -10.4085 37.3746 7.5732
449 150 2 -3.37216 3.98577 -11.8655 -3.11219 -5.67324 8.34302
421 141 1 -0.0529229 5.20697 -15.1914 -1.17759 1.09853 12.4097
489 163 2 -3.07277 1.17783 -15.6976 8.37575 15.8169 -12.2645
487 163 1 -3.49448 0.270439 -15.8824 -12.0792 -4.09536 6.94116
540 180 2 -5.51586 6.62672 -13.6199 1.72402 -5.26211 -2.48396
538 180 1 -4.62464 6.34075 -14.0476 -6.64829 14.8096 1.19028
64 22 1 -6.88174 2.49691 -12.5892 10.6618 -4.0538 7.21471
66 22 2 -7.00263 1.98565 -13.4944 -0.711619 8.7753 9.14834
293 98 2 -0.319255 5.42377 -11.7305 1.55022 -11.3376 -7.60533
119 40 2 -5.78394 7.11947 -10.9418 4.1012 5.54898 15.2514
69 23 2 -2.93802 0.558331 -10.0159 -11.0304 -0.371413 7.22258
476 159 2 -0.0943187 5.30741 -9.78983 0.545432 -9.90649 5.15703
164 55 2 -2.16173 5.35315 -9.90997 -5.87795 7.05996 -4.24941
422 141 2 -0.169383 6.03615 -15.7702 -1.81547 6.19521 0.969848
323 108 2 -6.24051 1.96971 -15.8089 -22.3087 -13.8518 26.3579
543 181 2 -1.72591 2.82152 -15.2357 0.230524 -9.12591 -9.97827
542 181 2 -2.90781 3.90049 -15.5975 4.60551 -18.2389 -8.86462
541 181 1 -2.74954 2.88229 -15.3793 -8.01807 20.4037 20.7562
224 75 2 3.18646 0.294169 -14.9977 -0.0864947 -0.619218 -12.4052
84 28 2 4.0503 0.129908 -11.9974 -2.06797 7.5424 -7.6804
190 64 1 4.14214 0.320799 -10.1802 -22.5198 24.265 3.6175
82 28 1 4.1157 0.177344 -13.0299 7.87199 -10.574 2.20274
554 185 2 0.83327 2.66146 -14.7861 2.293 -14.412 -2.58359
477 159 2 0.000852766 3.63257 -9.91441 -4.1664 -0.991155 5.52453
504 168 2 7.17587 6.00885 -11.8503 -2.59702 -21.8595 3.82549
223 75 1 2.94861 0.207949 -16.0017 5.91214 3.25041 27.1774
515 172 2 2.72221 7.20998 -14.6252 -0.192169 15.1228 13.5678
65 22 2 6.76064 2.79852 -12.1551 -2.18076 -0.522863 -9.06149
324 108 2 6.74699 1.88345 -15.04 18.4437 -8.76186 -4.64372
465 155 2 4.93982 2.11993 -9.85962 -2.81101 -1.83 -3.08275
98 33 2 6.14693 4.04687 -10.1165 -4.57603 2.07941 -5.57609
97 33 1 6.89149 4.71845 -10.3299 -1.23838 -17.1397 -10.7849
226 76 1 3.05024 4.41755 -11.08 -15.8073 -1.56085 9.97528
228 76 2 2.10164 4.14493 -10.8414 -12.6791 -13.0984 0.963898
227 76 2 2.89251 5.43562 -11.0209 20.2224 11.2175 1.83054
464 155 2 3.99188 3.45423 -10.1601 13.7438 5.41218 1.35868
53 18 2 2.72676 4.46908 -12.7391 11.5109 -4.43342 -4.03691
52 18 1 2.80156 4.20976 -13.7324 -18.422 -19.6418 -7.01884
59 20 2 4.45267 2.83903 -15.4769 8.91066 3.36772 -4.46531
58 20 1 5.15772 2.45841 -14.8484 -17.9284 -25.4236 17.3934
475 159 1 0.247901 4.52748 -10.3692 8.78869 7.04649 -5.34728
60 20 2 4.64915 1.76562 -14.2546 16.0544 14.8307 -6.71471
582 194 2 2.38659 3.5596 -16.0719 -3.73832 -12.5048 5.37923
54 18 2 3.26502 4.92442 -14.3039 2.86936 13.2072 4.55713
198 66 2 4.70609 5.49627 -15.3704 -11.3047 17.7509 7.44809
196 66 1 3.88473 6.10516 -15.1747 14.3875 -26.0478 -32.0578
197 66 2 3.48028 6.35271 -16.0996 0.453589 8.0377 8.33325
271 91 1 2.80387 7.01657 -10.894 19.5891 -7.67019 16.6606
272 91 2 2.49087 7.1365 -11.8377 -9.52185 12.8033 -21.1369
270 90 2 -7.22177 -4.25949 -9.46941 -5.09502 -0.121316 -1.79195
268 90 1 -6.21712 -4.42321 -9.48569 6.24579 -15.4243 0.446602
87 29 2 -3.71518 -2.93183 -8.0229 -8.4509 3.04394 -0.657907
85 29 1 -3.95353 -3.92561 -7.88136 -21.3948 -15.5397 -33.5771
86 29 2 -4.84902 -4.20086 -8.35502 14.107 16.0887 2.95504
269 90 2 -6.02539 -5.43369 -9.65803 1.63445 8.83607 1.10928
549 183 2 -1.00395 -1.70185 -7.43899 1.30901 -1.64895 -4.78981
179 60 2 -2.88266 -5.0898 -5.28175 -3.52801 3.92989 -12.2465
21 7 2 -0.936824 -3.09389 -9.65834 -1.51634 12.4707 -0.88631
19 7 1 -1.08355 -3.16919 -8.64017 -2.50324 3.14596 5.89759
20 7 2 -0.648507 -4.04941 -8.39691 3.85097 -12.0314 9.80732
135 45 2 -7.1841 -0.00608102 -9.50996 11.5511 14.1589 8.6754
235 79 1 -2.38864 -5.9441 -9.16876 -4.71083 -3.12233 9.63384
237 79 2 -2.86852 -5.26214 -8.55084 3.29659 -0.643679 -10.4823
178 60 1 -3.06211 -4.1386 -5.60277 10.6599 4.80349 34.2082
180 60 2 -3.41441 -4.0209 -6.59329 1.75107 -11.1045 8.77275
548 183 2 -0.7437 -0.16089 -6.83496 -8.87647 14.693 -1.46403
547 183 1 -0.348712 -1.07552 -6.94555 -2.35085 -7.27391 -8.46214
364 122 1 -4.10975 -1.07458 -7.61371 -0.223353 -0.485131 -1.21594
366 122 2 -4.00311 -0.364453 -8.35366 4.92243 -3.75272 -12.887
365 122 2 -4.40136 -0.471151 -6.85569 -2.63184 -1.85488 17.1914
386 129 2 -0.232429 -6.98247 -9.31221 -7.28835 3.55831 -2.4468
103 35 1 -6.63078 -6.5611 -6.13913 -10.6743 2.54315 8.52864
104 35 2 -6.90369 -5.55902 -5.9747 7.50228 -8.61372 -2.62405
105 35 2 -5.72326 -6.6581 -6.54906 19.0314 6.87674 -6.7205
245 82 2 -7.23189 -1.27789 -6.02429 -4.48148 2.07572 0.180137
546 182 2 -6.25313 -4.97055 -3.57804 11.8475 0.0686207 8.74735
117 39 2 -2.70108 -3.86992 -3.26113 3.11126 9.8827 0.0721462
50 17 2 -2.97176 -2.47533 -4.4569 -2.11637 -4.62335 -0.412949
51 17 2 -1.52814 -1.77226 -4.46961 2.33042 1.17427 6.73041
49 17 1 -2.25448 -2.09864 -3.83456 3.61361 1.96744 -8.81272
261 87 2 1.21644 -4.71042 -6.62182 -10.4403 -16.4841 6.12473
8 3 2 6.21703 -4.49029 -4.96388 -29.4278 -1.94593 14.057
7 3 1 7.07398 -4.20881 -5.36474 34.6493 -10.9851 -4.48349
9 3 2 6.99585 -3.23203 -5.68666 -9.51397 7.31833 0.427672
37 13 1 4.0909 -4.08927 -7.16494 0.966295 3.45492 18.0258
39 13 2 3.27904 -3.47836 -7.35972 11.1936 0.34642 -1.20732
38 13 2 4.41287 -3.96926 -6.18577 -7.57075 1.78934 -21.1866
246 82 2 5.63898 -1.14827 -5.60125 7.10587 -4.84456 0.198312
244 82 1 6.38988 -1.76803 -5.93078 0.255646 15.1213 -3.82836
636 212 2 5.03725 -4.31617 -8.80304 -4.8089 3.73904 6.91017
259 87 1 1.05629 -4.87307 -7.62112 13.0563 11.8452 21.9732
260 87 2 1.74164 -4.2072 -7.98 -2.96082 1.552 -16.1832
387 129 2 1.06602 -6.17905 -8.74937 -10.8859 10.8975 -9.99802
94 32 1 4.18595 -2.68336 -4.01399 -0.252621 -4.35974 -1.69518
305 102 2 2.89213 -0.391708 -4.43318 10.6789 6.62551 -7.12139
300 100 2 2.38615 -5.7241 -5.2021 -2.9148 6.35081 4.58731
599 200 2 3.47648 -0.179097 -6.46359 -6.16477 -0.707468 7.65573
304 102 1 3.85149 -0.0925542 -4.69483 -24.3207 -2.6487 7.74083
229 77 1 2.06653 -2.37886 -8.09181 -14.7048 -12.5573 0.842183
230 77 2 2.46669 -1.45007 -7.97964 4.72775 15.215 4.27722
231 77 2 1.03524 -2.29328 -8.06591 8.80419 3.96995 0.920928
385 129 1 0.593688 -6.4853 -9.62553 14.9002 -18.4149 5.91579
96 32 2 3.37313 -3.30378 -3.88271 3.34941 17.795 -3.66407
299 100 2 1.35195 -5.56607 -4.02821 -7.39221 -1.30889 19.6337
95 32 2 4.04669 -1.66697 -4.22654 -3.10434 -22.5704 3.93768
298 100 1 1.69458 -5.04806 -4.81989 15.4904 -3.09712 -23.2743
445 149 1 3.48403 -7.22914 -5.0088 -13.2487 23.7736 -7.0714
446 149 2 4.45414 -7.05123 -4.75845 5.66048 -9.8916 7.14584
301 101 1 0.948821 -1.89185 -4.94856 2.48386 2.07516 -7.1552
303 101 2 1.07699 -2.8329 -5.31855 2.5965 -2.50961 11.5031
302 101 2 0.489611 -1.3981 -5.76773 6.0223 -7.44401 16.8119
199 67 1 -4.85879 3.42001 -9.17844 -8.53595 15.1008 7.95189
200 67 2 -5.79507 3.35573 -9.60844 9.82395 5.36066 4.74937
120 40 2 -5.0596 6.77784 -9.45527 2.44075 -0.358643 7.48602
133 45 1 -6.73861 0.847272 -9.09148 -22.111 -12.4984 -6.14916
194 65 2 -0.527849 1.31319 -4.0482 2.30931 -1.23141 15.6525
134 45 2 -5.95687 1.14103 -9.66865 9.62226 -4.9431 -2.71813
201 67 2 -4.8106 4.23087 -8.51586 -1.46686 -12.2312 -15.8277
165 55 2 -2.0961 6.96866 -9.24184 -2.78016 0.797213 -3.43861
163 55 1 -1.84262 5.9642 -9.13762 10.8106 -1.57539 13.2578
67 23 1 -3.71293 0.81437 -9.38511 16.2799 3.79341 -12.3207
68 23 2 -3.73478 1.8368 -9.32714 -5.89926 2.65613 0.774367
210 70 2 -4.38872 5.52464 -6.92825 4.67437 16.8145 -26.8537
285 95 2 -4.76224 1.66204 -6.57068 7.54077 2.96283 -13.363
283 95 1 -4.72361 1.02805 -5.78853 -3.08817 4.57851 -3.93481
284 95 2 -5.58092 1.24265 -5.28489 -2.65395 -10.106 16.8588
208 70 1 -4.29669 5.86279 -7.94081 1.23516 -17.3615 25.6393
209 70 2 -3.292 5.93039 -8.20418 -9.60228 0.23581 3.00935
643 215 1 -6.59513 1.51608 -3.53068 38.4588 -4.03034 -5.13859
129 43 2 -0.0882372 2.0702 -7.93921 2.48498 3.23744 -3.44373
624 208 2 -6.77811 6.45037 -7.37436 -6.39485 -0.671982 7.33315
127 43 1 -0.388506 2.29266 -8.89537 -0.396114 -4.45055 3.56926
639 213 2 -1.10114 5.40911 -6.83513 -2.66356 -7.76407 9.53762
128 43 2 -0.428388 1.39548 -9.41669 4.03164 2.22483 -1.87969
569 190 2 -4.04445 5.21194 -4.54984 -4.28612 -4.39959 1.50063
568 190 1 -4.62199 5.12112 -5.40265 10.6331 2.18722 -8.15899
570 190 2 -5.25371 4.32056 -5.35491 -4.9689 3.69973 11.7694
637 213 1 -0.467003 5.01167 -6.13104 -18.7713 9.14229 -6.86747
341 114 2 -7.13255 3.30418 -5.80161 -13.5264 4.07161 -6.99241
342 114 2 -6.74227 2.76828 -4.33141 -5.7627 6.96272 3.85883
340 114 1 -7.00175 3.64172 -4.84415 11.2752 -1.30782 -5.25446
18 6 2 -3.08427 1.07446 -5.02962 9.93061 1.10303 7.44783
16 6 1 -2.29193 1.18891 -4.36558 -3.45302 -0.730541 -26.1164
17 6 2 -2.70377 1.1129 -3.45496 -2.2233 -2.46857 21.8671
500 167 2 -2.07511 4.84741 -3.46745 3.46104 -5.76677 5.41277
62 21 2 -0.50768 4.60451 -4.54012 10.825 -24.3265 11.4919
61 21 1 -0.472461 4.23254 -3.54966 -6.78159 36.7588 1.72372
63 21 2 -0.0768058 3.31656 -3.34636 4.09656 -11.6982 -17.2946
191 64 2 3.32111 0.628868 -9.59342 28.2004 -21.4898 -12.7754
463 155 1 4.75314 3.07736 -9.53907 -3.82499 -3.74195 -2.9403
99 33 2 6.99032 5.26607 -9.48398 3.98337 18.5213 15.2302
123 41 2 5.95694 3.10629 -8.00706 1.01283 -6.30738 1.21716
122 41 2 7.23212 2.02052 -8.02761 -9.88074 5.22911 9.28566
193 65 1 0.48001 1.48728 -3.85857 -23.4182 -3.21509 -26.6419
335 112 2 4.08237 7.13379 -8.85115 3.28335 2.80328 -10.0295
336 112 2 4.48199 7.13648 -7.23954 0.420953 2.66732 1.24367
334 112 1 3.75461 6.92728 -7.91964 -6.38749 -10.8548 3.81132
306 102 2 4.03491 0.781888 -4.17341 8.18572 -6.02127 -5.86396
600 200 2 3.87396 0.873218 -7.59128 -10.5363 2.27005 0.808496
598 200 1 3.21362 0.116358 -7.40707 15.5172 -3.53916 -6.5544
121 41 1 6.7272 2.73233 -7.44175 11.5974 0.539001 -10.4629
414 138 2 1.81848 2.64804 -6.58604 -3.12763 -2.72195 -2.53743
622 208 1 7.04168 5.9071 -7.8963 -7.30818 -18.4889 -14.2729
195 65 2 0.720868 1.67796 -4.85404 11.2104 7.17356 6.78899
412 138 1 0.838488 2.4279 -6.3112 -6.92407 2.33132 -6.24768
623 208 2 6.75926 5.01705 -7.46638 8.16836 13.6776 6.8609
644 215 2 6.94857 1.6994 -3.26336 -23.5692 -9.17132 8.90293
638 213 2 0.418806 5.29926 -6.55813 15.7467 -3.54727 -3.91899
480 160 2 3.76982 3.16733 -8.19074 1.61529 -0.729112 6.44044
413 138 2 0.250851 3.25695 -6.48813 4.92356 -0.506778 6.65619
648 216 2 5.02452 4.66844 -5.03778 6.2888 5.75039 4.42772
646 216 1 4.26199 3.999 -5.03577 0.540684 6.02915 -18.1803
647 216 2 3.82306 3.9361 -4.10763 -2.11926 -5.83055 6.02152
478 160 1 3.23352 3.05703 -7.31264 6.03855 4.21663 -8.81188
90 30 2 1.95433 4.4312 -8.16295 -1.6442 -18.5338 -0.670941
479 160 2 3.7537 3.47555 -6.51214 -3.97694 -3.7389 3.34735
89 30 2 2.33788 5.91198 -7.82627 -2.85013 11.859 3.26298
88 30 1 1.5271 5.27431 -7.821 11.6729 16.8826 0.668898
523 175 1 6.25745 6.39913 -4.80542 10.2966 12.2082 0.0200669
525 175 2 7.03545 7.02067 -5.18308 -22.5852 -18.4542 2.03861
524 175 2 6.61036 5.73304 -4.12093 5.3749 0.998543 -3.03272
447 149 2 3.31948 6.33862 -5.30994 2.21805 -13.0523 -0.376011
558 186 2 -6.45663 -3.47189 -1.9907 1.55759 -15.559 -14.1128
115 39 1 -3.00719 -4.57862 -2.59714 -2.37712 -21.1687 0.756423
614 205 2 -5.63305 -1.39401 0.841047 9.90205 8.15542 10.4707
615 205 2 -6.45937 -2.58562 0.273396 -3.66066 -5.48722 14.2762
613 205 1 -6.14341 -2.21084 1.19885 -1.71535 3.27392 -36.6149
556 186 1 -7.11083 -3.21907 -1.26671 4.3153 28.016 33.2771
544 182 1 -5.62059 -5.13909 -2.77521 -19.8424 -11.1335 -16.7307
116 39 2 -3.98831 -4.84696 -2.83617 7.3797 7.01509 10.2041
351 117 2 -1.98659 -6.28432 -1.75988 2.7684 -11.3385 16.3709
609 203 2 -1.51659 -6.76426 0.433037 2.26989 7.33619 0.885943
337 113 1 -5.82036 -4.98759 1.98057 18.2649 -5.68348 -11.1703
349 117 1 -1.53223 -7.0335 -1.18717 -21.7281 24.2092 -22.3491
339 113 2 -5.46719 -5.88742 1.61553 -2.19406 17.2612 1.45886
461 154 2 -5.24385 -1.96568 3.0535 -0.892016 -13.7985 11.9571
607 203 1 -1.47629 -6.72354 1.46775 -0.55304 -6.16327 18.832
338 113 2 -5.49959 -4.1589 1.45274 -5.61979 -9.61966 5.1681
606 202 2 -1.25263 -4.4371 -0.367397 4.97031 3.47929 4.16466
604 202 1 -0.329138 -4.06124 -0.600957 -6.62759 -8.22021 -7.63787
605 202 2 -0.505195 -3.19133 -1.10705 6.67255 4.452 2.13995
545 182 2 -5.89081 -6.03199 -2.32724 5.95865 8.65183 2.59569
319 107 1 -1.7374 -4.01822 2.07021 -7.22811 -0.298243 5.90812
321 107 2 -2.66799 -3.65372 2.29775 12.7159 -1.34964 -2.9948
608 203 2 -1.50898 -5.77954 1.91086 -1.08785 -4.62519 -18.2879
320 107 2 -1.02047 -3.47457 2.60007 -9.96351 -3.08804 -0.913326
35 12 2 5.68991 -0.423659 -1.35175 -2.73188 -8.56613 5.24643
34 12 1 4.82428 -0.0575905 -0.958025 1.95676 -5.04267 2.84183
557 186 2 6.44306 -3.6078 -1.29906 -0.545693 -6.6654 -9.07795
91 31 1 4.95184 -4.24845 -1.11523 9.13338 26.243 -3.51326
93 31 2 4.64128 -4.88649 -1.83376 -4.38756 -18.9737 -7.78187
36 12 2 4.1774 -0.776674 -0.592256 2.24616 2.74438 -2.63869
92 31 2 4.88415 -4.66465 -0.183246 -11.2542 -5.03145 5.92026
150 50 2 5.98758 -3.49663 2.96068 -0.0631858 -7.60171 7.50095
253 85 1 1.30092 -6.00497 0.588919 -9.28166 -2.96193 29.3749
255 85 2 0.896237 -5.08558 0.33647 -2.56645 -8.76022 0.726459
486 162 2 7.09818 -0.0990601 1.29038 -0.133311 -0.103137 -2.89491
43 15 1 4.84158 -6.80392 -2.42077 2.94343 -5.41646 20.3481
312 104 2 3.71657 -2.71284 -0.81896 3.33854 -4.40081 1.20925
311 104 2 2.40228 -2.77318 0.182562 8.85577 13.1835 -3.9258
310 104 1 2.99101 -2.13549 -0.379382 -2.87139 -17.7797 -0.670048
593 198 2 0.325239 -1.68714 -2.66248 13.6108 -2.20016 7.96591
592 198 1 0.687241 -1.51482 -1.70964 -12.4783 -3.89751 -11.1859
594 198 2 1.59697 -1.9312 -1.45059 -6.78394 0.238832 -2.5417
148 50 1 6.66082 -2.78183 3.21525 -7.84876 7.17752 -9.71887
279 93 2 3.0634 -5.4544 1.33325 -5.29566 -8.0875 -0.976993
381 127 2 3.56957 -3.18164 2.24326 -4.40673 0.391079 -0.309461
277 93 1 3.89997 -4.87284 1.2735 15.9854 9.42405 15.0272
603 201 2 0.447483 -5.52832 -1.71426 21.0638 -11.143 -3.35272
601 201 1 1.1932 -6.19357 -2.0244 -28.8369 13.8271 -25.0903
602 201 2 1.65608 -6.53534 -1.18328 2.28628 4.55174 11.5871
149 50 2 7.09505 -2.51119 2.31595 9.56969 -0.654658 10.4656
254 85 2 0.654848 -6.50257 1.24252 13.4863 10.2838 -14.1154
617 206 2 1.97001 -0.207287 -1.86429 -3.45517 2.97127 13.3858
45 15 2 5.80236 -7.06992 -2.59882 0.051139 -0.437958 -4.66565
347 116 2 7.22846 -5.24962 2.32721 -15.8038 -6.95635 11.5983
348 116 2 6.44965 -6.68402 2.37229 -7.48104 5.33429 -3.51113
278 93 2 4.65094 -5.20415 1.90905 -7.0787 -6.1439 -5.31833
346 116 1 6.32019 -5.69149 2.64643 5.19536 4.44891 -6.1204
379 127 1 3.24705 -2.61501 3.03532 10.9934 -15.3234 8.64302
645 215 2 -5.96736 1.64537 -2.72083 -8.39824 -2.31796 2.48891
2 1 2 -5.10253 0.997327 -0.0011389 -2.67866 -11.0329 11.2717
1 1 1 -4.63436 0.127248 0.325828 -4.32008 17.0883 -18.4917
350 117 2 -0.878232 7.05967 -1.83809 7.28877 -7.22653 2.94114
567 189 2 -3.1966 6.32588 -0.484485 -0.190566 -6.89884 -1.27101
565 189 1 -3.75563 5.49427 -0.249583 15.2937 10.051 6.67808
566 189 2 -3.43135 5.20984 0.687788 -3.25822 -2.31911 -4.84481
3 1 2 -3.90532 0.161079 -0.405006 9.0559 -9.89683 9.18831
331 111 1 -2.11345 5.06741 2.17886 -18.9393 3.8037 -11.2673
101 34 2 -4.69064 2.98868 -1.21936 -15.2035 -5.04969 7.93608
100 34 1 -5.49834 2.37312 -1.01571 10.1964 1.51563 -5.24521
102 34 2 -6.18319 2.79359 -0.379813 1.27381 6.59566 -1.0349
369 123 2 -1.71461 0.0500635 -1.46678 3.9305 -19.5783 -12.2249
367 123 1 -2.38194 0.7583 -1.22993 9.56959 10.8758 8.72532
501 167 2 -2.89037 4.79726 -2.02163 -5.47612 4.9574 -10.6706
499 167 1 -2.98493 5.02635 -3.02236 -6.20866 0.652529 4.38161
332 111 2 -1.38144 4.53448 2.64475 14.5499 -1.77034 10.97
333 111 2 -1.7722 6.01591 1.96387 2.67556 2.58626 2.06665
249 83 2 -6.93151 6.91842 0.468192 -4.66908 -4.38973 -4.18788
368 123 2 -1.76691 1.32845 -0.612301 -16.1811 7.8099 1.7882
420 140 2 -0.728903 1.76117 1.47744 3.1493 -2.0517 -16.4062
418 140 1 -1.12936 2.25826 0.664571 7.56585 -16.6765 19.8017
373 125 1 -5.96881 6.89126 -1.15705 3.46175 -4.59899 -14.3646
375 125 2 -5.02185 6.48797 -1.08378 -5.81248 -0.0829722 7.76417
374 125 2 -6.50585 6.16284 -1.66434 -4.72387 3.18807 9.13666
485 162 2 -7.24823 0.0995025 2.90531 -4.84808 12.5268 -1.82331
419 140 2 -1.47314 3.09141 1.10188 -9.22206 18.272 -3.87338
234 78 2 -3.66372 0.538654 2.13539 4.68888 2.30603 2.90368
232 78 1 -3.30396 0.402702 3.08909 -1.75674 0.411224 -7.54636
435 145 2 4.96786 0.834622 -2.31673 2.35907 14.4393 3.8254
433 145 1 5.35097 1.58754 -2.92945 -13.6515 21.728 0.368227
434 145 2 4.79961 2.47219 -2.77575 5.38862 -24.6193 -3.16097
618 206 2 1.45943 1.00357 -2.78068 1.01425 7.15643 13.3843
44 15 2 4.50878 7.05149 -1.69086 -1.42963 4.89076 -12.0302
329 110 2 4.01966 0.53366 3.21575 2.50647 -15.3363 -5.16285
315 105 2 3.9989 5.88781 0.347308 9.51434 -1.37749 6.46445
313 105 1 4.07193 5.51303 -0.597913 -12.147 11.5064 9.96163
564 188 2 0.952267 5.15417 -2.63352 7.33971 -5.05825 -2.68884
562 188 1 1.80986 5.69889 -2.46827 -23.5159 -9.31801 2.98361
563 188 2 1.48252 6.65586 -2.65134 16.2423 6.76664 3.55813
560 187 2 6.97017 4.30068 -2.87325 -7.19181 -0.124263 18.7521
559 187 1 6.86598 4.87174 -2.01373 0.661144 -0.0449929 -5.64925
561 187 2 6.2005 4.53088 -1.28704 8.10034 0.170217 -19.2202
513 171 2 0.442209 3.29243 3.03795 -6.01191 0.302857 11.7301
484 162 1 7.09958 0.604551 2.01795 0.696262 -12.7892 5.51472
109 37 1 6.41119 3.10459 0.889638 -1.58825 -7.20334 2.76611
616 206 1 2.09477 0.803208 -1.96454 0.713277 5.904 -19.0387
153 51 2 2.41347 1.86893 -0.274386 -1.3848 -7.8008 -9.65082
111 37 2 6.05362 3.43288 1.80009 3.06025 -8.98022 -9.92506
590 197 2 1.66929 2.00297 1.77242 0.207661 -2.16653 7.55585
589 197 1 1.14283 1.79846 2.64925 -6.74387 8.16138 -24.8114
110 37 2 6.57385 2.07769 0.949767 -1.69701 16.59 9.06762
248 83 2 6.46863 5.73294 0.85975 0.415044 0.0700301 -0.628861
247 83 1 6.84005 6.64212 1.12728 6.08063 -0.754064 1.53638
24 8 2 2.67018 2.41358 -2.45073 2.83822 2.07856 2.30868
22 8 1 3.20562 3.26092 -2.70519 -3.93477 1.23973 7.04155
23 8 2 2.76607 4.09313 -2.28013 2.65126 -1.93052 -5.84629
151 51 1 2.73382 2.462 0.485976 6.98521 2.36124 9.32903
152 51 2 3.75204 2.56734 0.433946 -7.25575 -0.201625 -1.29673
314 105 2 3.08614 5.49492 -0.871972 4.40757 -3.72993 -13.0507
5 2 2 2.55504 6.28451 2.80977 6.00492 0.308018 9.95761
216 72 2 4.27942 4.36666 2.86389 -7.56065 11.694 -2.74069
4 2 1 3.58412 6.22198 2.67253 -2.96431 -23.1862 -45.8733
460 154 1 -4.76251 -1.61471 3.89373 8.10908 20.363 -8.2264
276 92 2 -3.41147 -3.11601 6.24664 10.014 10.291 3.69207
275 92 2 -4.2629 -1.64851 6.601 5.09457 1.44509 2.5263
442 148 1 -1.27035 -1.86714 6.46976 -11.1245 -9.59396 24.5282
443 148 2 -1.72736 -1.93194 7.41213 5.2896 -8.5902 -9.34323
167 56 2 -1.72943 -5.8352 6.92351 11.5465 -20.7521 -4.76451
212 71 2 -3.30551 -2.18347 9.39773 6.14752 2.68536 4.45929
211 71 1 -2.45899 -2.45345 8.86624 6.0992 -9.25421 -2.8136
132 44 2 -2.29176 -5.92233 9.18581 8.80391 -9.86091 0.569275
130 44 1 -2.63178 -5.19271 8.55882 34.3842 -10.7288 9.697
274 92 1 -4.29698 -2.65134 6.42954 -4.29617 -8.76612 -12.8552
166 56 1 -1.04799 -6.48409 6.46463 0.772006 16.9022 2.53022
462 154 2 -4.40502 -2.23287 4.63086 -15.818 -11.0186 -6.26767
427 143 1 -4.66525 -7.20778 5.34229 -8.81819 -6.41247 12.3663
428 143 2 -4.02492 -6.61965 4.82382 2.35937 -1.37793 -5.45775
131 44 2 -3.55427 -5.01621 8.93731 -25.0627 9.22616 -12.0442
588 196 2 -4.54893 -4.03871 7.45904 0.986906 13.4275 -11.948
213 71 2 -2.26799 -3.46233 9.02516 -5.49858 13.5553 -7.45449
398 133 2 -0.868813 -2.44812 4.85577 6.65838 1.66592 -9.13791
397 133 1 -0.443567 -2.54095 3.91166 -16.5311 -5.85142 10.4099
71 24 2 -7.03098 -1.73588 8.88288 -10.775 -19.8215 -14.9847
239 80 2 -6.93663 -5.68523 4.72153 -6.40313 -0.281099 -0.26915
240 80 2 -6.54341 -6.56586 6.04451 4.10218 -1.04165 -2.74227
444 148 2 -1.28474 -0.866057 6.25929 -3.10098 8.85737 -11.5499
233 78 2 -3.85909 -0.400336 3.4399 -0.641714 0.396118 2.56701
572 191 2 -5.84422 -0.0743024 5.36746 -6.00224 -2.43151 -7.41905
587 196 2 -5.9747 -3.98198 8.26345 -7.27279 3.45303 -3.08562
586 196 1 -5.07017 -4.43773 8.22959 -22.4801 -14.3109 25.5578
330 110 2 3.39498 -1.11379 3.54092 8.63675 5.63046 -19.6028
328 110 1 3.33982 -0.0806382 3.6727 -7.38451 11.4638 19.2163
535 179 1 6.8732 -0.486492 4.77334 -8.66128 -1.15178 12.384
296 99 2 1.58465 -0.238074 4.30659 5.83505 21.5812 -9.11128
297 99 2 1.32689 -0.74958 5.74176 -11.1373 14.5398 5.41743
399 133 2 0.447471 -2.07907 3.88587 11.633 4.13449 -1.70505
380 127 2 3.33053 -3.20649 3.89343 -9.60243 6.20602 -10.1049
536 179 2 6.75649 -1.44597 4.43345 2.28365 -5.9198 -7.79024
158 53 2 0.377371 -6.1787 5.34972 15.0199 19.7416 0.583198
352 118 1 1.85374 -1.81774 9.36475 -10.5794 0.540977 -2.80048
360 120 2 2.68363 -5.73929 9.4416 -0.690266 -4.28581 -2.44897
157 53 1 1.25928 -6.01218 4.81514 -11.6646 -15.733 3.40749
238 80 1 7.20103 -6.07044 5.59195 -3.08932 -0.0675531 1.55846
159 53 2 1.76343 -5.11181 4.90262 -10.2607 -0.573173 6.8957
440 147 2 2.60626 -3.0396 5.82895 -7.98293 -9.89278 -2.57665
439 147 1 2.91241 -3.9123 5.35274 13.0766 5.07881 11.0852
441 147 2 3.62821 -4.34455 5.95612 0.588498 -0.994187 -2.65559
30 10 2 5.55035 -3.94321 6.95698 14.0109 9.09407 1.97346
28 10 1 5.1584 -4.87055 6.9122 -17.7438 -17.9643 -2.52225
29 10 2 5.81273 -5.56482 6.49453 6.04002 15.6403 -1.97852
70 24 1 6.84481 -2.35396 8.32103 21.0679 24.964 23.8493
359 120 2 1.85716 -4.7943 8.32417 2.88541 -14.8442 5.8579
358 120 1 1.83872 -5.66958 8.87085 0.176429 30.0371 -8.30558
72 24 2 6.20926 -1.64618 7.9631 -9.75343 -2.33289 -5.14561
537 179 2 6.13672 -0.317235 5.49718 8.88617 7.48752 -15.6614
496 166 1 4.11814 -7.22498 4.95395 4.01554 10.7932 28.2252
497 166 2 3.28641 -6.76068 5.36169 10.1149 -7.71746 -11.9923
498 166 2 4.94112 -6.61547 4.99189 -4.19136 -2.13016 -2.66926
177 59 2 1.60729 -1.87279 7.68203 8.05819 -2.10587 7.2099
175 59 1 1.41191 -2.13379 6.70351 9.03431 4.24949 2.74315
176 59 2 0.427367 -2.41073 6.71122 -9.29486 1.47056 -6.068
416 139 2 6.02398 -6.9232 9.61044 -6.84133 2.41734 -13.5631
415 139 1 5.81477 -6.99298 8.60277 8.17986 -15.017 11.3461
56 19 2 0.413724 -7.18814 8.25383 9.42659 -22.6738 10.6853
417 139 2 5.55912 -6.09267 8.19726 -3.89307 8.73768 1.29808
402 134 2 -5.47071 2.72281 6.65694 3.04557 -11.1216 -4.13161
401 134 2 -6.58628 3.93676 6.48243 -6.55597 4.64461 -12.0732
400 134 1 -5.9199 3.50955 7.09887 -0.936182 6.35513 14.4193
511 171 1 -0.148022 3.89836 3.6522 -10.0144 -16.4709 10.6867
552 184 2 -6.68626 2.48187 4.45306 0.167997 3.03325 -10.6431
550 184 1 -6.63096 3.36845 3.93826 -6.13186 -5.5166 15.405
458 153 2 -6.04536 5.16806 8.62118 10.2335 0.305525 4.21689
457 153 1 -5.37556 5.87108 8.96802 -12.1045 8.42048 -24.4603
429 143 2 -4.73136 6.34523 4.94485 5.06434 4.9173 -6.49016
579 193 2 -1.63955 4.8059 7.57396 0.813378 9.75189 0.236694
287 96 2 -0.648168 0.241558 4.83537 1.84657 10.725 15.1325
459 153 2 -5.42397 6.71486 8.38632 -1.14357 -7.42164 3.0826
288 96 2 -2.15208 0.444712 4.34312 -3.74504 7.8061 13.3177
168 56 2 -1.34533 7.04626 6.42056 -11.7872 4.06983 4.45007
576 192 2 -3.61162 6.2693 6.59713 0.889303 4.24876 -2.70738
286 96 1 -1.58039 0.503569 5.21789 -2.83314 -7.6422 -25.0905
370 124 1 -4.32228 4.83133 4.22288 12.0882 -6.62183 -2.84107
372 124 2 -5.03569 4.11379 3.96709 3.59236 10.6499 0.0514322
371 124 2 -3.45982 4.74727 3.64987 -16.3786 0.309788 0.796496
575 192 2 -2.93449 4.82421 6.18944 -1.17488 14.9784 2.0732
574 192 1 -2.74705 5.724 6.6636 1.89585 -20.8391 -2.5012
512 171 2 -0.117367 3.50685 4.60753 0.891743 0.881597 -11.8351
596 199 2 -0.366102 1.59851 6.53559 4.92269 12.6126 -6.73968
597 199 2 -0.163683 3.12659 7.31365 -0.766829 -2.93419 -11.3648
573 191 2 -4.41618 0.831419 5.70094 -17.03 -9.96592 -2.67379
326 109 2 -6.29375 0.630261 8.08497 -5.70685 -8.15278 -5.05054
325 109 1 -6.5877 0.389004 9.0359 20.2178 22.797 5.04186
327 109 2 -5.85562 0.92324 9.5701 -12.7867 -14.6593 -8.13233
578 193 2 -0.125329 5.223 8.28456 -14.4122 -8.92307 -5.22102
577 193 1 -0.818821 4.4402 8.07568 6.01107 -13.5198 7.58298