ITEM: TIMESTEP
33500
ITEM: NUMBER OF ATOMS
648
ITEM: BOX BOUNDS pp pp pp
-7.2245851404680543e+00 7.2245851404680543e+00
-7.2245851404680543e+00 7.2245851404680543e+00
-1.6054633645484707e+01 1.6054633645484707e+01
ITEM: ATOMS id mol type x y z fx fy fz
432 144 2 -2.55805 -3.53132 -11.0652 10.2796 5.03642 12.075
431 144 2 -2.80386 -2.01863 -11.8517 -2.36428 -26.562 12.5378
430 144 1 -3.00329 -3.05966 -11.8514 -1.22675 30.8113 -14.9983
471 157 2 -2.42917 -0.231432 -10.5331 -5.7512 0.63007 -10.7644
469 157 1 -2.87491 -0.297753 -11.4817 -0.958504 -27.7209 5.18988
611 204 2 -6.58144 -3.70074 -10.5439 -0.275466 4.32706 6.20347
488 163 2 -1.60615 -2.65206 -14.2073 -4.38408 1.33109 2.25066
639 213 2 -5.54292 -4.7683 -13.5027 2.71488 4.43539 10.8656
637 213 1 -5.96767 -5.27498 -14.2773 -48.6366 24.3282 -8.55915
267 89 2 -4.69538 -0.907448 -12.0484 20.8639 -1.14731 15.0832
265 89 1 -5.47456 -0.512458 -12.5405 -23.7387 -6.31029 -23.5002
480 160 2 -0.567703 -4.55114 -13.55 -2.27973 -6.22893 -9.37907
170 57 2 -0.804228 -4.44159 -15.9613 5.23192 -12.3202 8.11782
324 108 2 -6.76219 -1.19359 -15.1781 -5.0586 0.919395 -12.1626
610 204 1 -7.17984 -3.11709 -9.92617 -6.18581 -17.4821 -34.9341
617 206 2 -6.70671 -1.38197 -13.3008 19.3872 5.61614 9.36156
638 213 2 -6.90762 -4.77728 -14.4458 43.5049 -25.0973 0.875523
607 203 1 -0.0171781 -2.39463 -13.7134 9.15778 5.13483 7.42351
478 160 1 -0.644018 -5.34082 -14.2115 -11.5869 13.581 7.26994
479 160 2 -1.60814 -5.73549 -14.1267 3.56896 6.36648 2.52489
34 12 1 -3.2217 -5.99153 -13.8508 -5.14468 0.31755 -6.78308
36 12 2 -3.23042 -6.9273 -13.3705 -0.729069 8.31212 -2.60982
35 12 2 -4.17508 -5.82433 -14.2025 5.35807 0.437988 3.31381
215 72 2 -6.08621 -6.50302 -15.52 -5.61426 7.21368 15.3811
194 65 2 -4.4074 -3.7178 -11.7485 -9.80047 -0.485308 -1.54977
193 65 1 -5.36828 -4.13981 -11.6965 2.89647 -0.942936 -4.32284
195 65 2 -5.27221 -5.05884 -11.2522 0.303777 -7.60454 5.26066
377 126 2 -0.597572 -3.99526 -9.93084 6.9047 -4.47715 -11.1246
331 111 1 -5.34609 -6.50402 -10.2399 -3.30293 12.2724 -1.06821
487 163 1 -2.55067 -2.67268 -14.6478 1.27935 6.57655 -5.45041
338 113 2 -3.16509 -1.40947 -15.524 3.09902 0.195777 6.80506
489 163 2 -3.25642 -2.67266 -13.9015 7.27859 -5.60255 5.35066
597 199 2 -3.33116 -3.38949 -15.9661 3.04723 -1.76046 13.5042
612 204 2 7.21085 -2.2759 -10.4959 -6.93828 5.68772 10.4054
616 206 1 6.95057 -1.90786 -13.6642 -36.3931 10.7722 14.7173
618 206 2 6.12666 -1.55484 -13.0906 15.1862 -19.0087 -21.9387
570 190 2 3.42361 -3.9182 -14.5896 6.1405 -14.1322 4.63993
457 153 1 5.34376 -0.237519 -9.94659 24.016 18.3564 -21.7799
456 152 2 2.60794 -1.86247 -15.4511 -18.2612 13.7907 -3.75449
454 152 1 3.44214 -2.27231 -15.0975 -7.47063 -18.7109 29.3384
568 190 1 3.81471 -4.8928 -14.5384 -12.4024 26.2844 -7.779
609 203 2 0.400827 -1.77825 -14.4069 -4.3433 -1.67035 -0.549909
608 203 2 0.548153 -2.25287 -12.8579 -3.22065 -4.21757 -1.22669
336 112 2 4.60988 -0.933285 -11.4525 19.7904 2.70912 7.95397
15 5 2 6.21394 -4.67627 -9.73941 -2.62032 -15.9213 9.26285
146 49 2 6.50318 -5.87055 -12.5395 -1.00395 -6.42595 5.66742
147 49 2 5.14909 -5.41567 -13.3158 -7.62416 -13.9774 3.045
622 208 1 3.07169 -4.17337 -9.89551 -0.978895 -3.11651 4.10758
525 175 2 1.77381 -1.57294 -10.7079 -9.83663 20.3963 6.05493
13 5 1 5.79666 -5.62654 -9.80098 -1.67811 22.2028 -25.7114
624 208 2 3.87009 -4.18811 -10.5018 16.9347 -4.2735 -8.36939
242 81 2 2.49853 -5.76619 -13.972 -14.7968 -6.65148 5.54827
557 186 2 2.16237 -7.11472 -12.4129 15.0132 0.444592 14.5549
335 112 2 3.5352 -1.53844 -12.3789 11.2202 -8.39451 -12.4304
243 81 2 0.752719 -5.90824 -14.0117 8.23489 -3.93637 6.59149
334 112 1 4.55513 -1.35296 -12.386 -24.9479 10.4769 9.46329
241 81 1 1.66215 -6.34845 -13.7152 13.3137 4.00228 -18.5496
145 49 1 5.6153 -6.22702 -12.885 7.909 7.47542 -8.28281
524 175 2 2.41073 -2.89764 -11.0955 -11.4105 5.67796 -18.0692
523 175 1 1.92692 -2.09402 -11.56 18.5907 -26.9563 15.2688
117 39 2 2.85621 -6.78422 -9.70013 1.03267 -4.80069 -11.0325
221 74 2 6.87781 -3.91896 -16.0517 -4.98202 3.31291 0.905989
569 190 2 4.76428 -4.68544 -14.8973 4.16981 -3.01364 -2.19485
455 152 2 4.05267 -2.3066 -15.8963 22.5897 -8.97498 -18.6954
220 74 1 6.22815 -3.95292 -15.2345 10.6266 -5.03582 4.97335
222 74 2 6.43661 -3.11109 -14.6544 -2.93374 -0.873405 -1.02741
249 83 2 2.79231 -5.60065 -16.0205 7.64299 20.2659 33.0779
470 157 2 -2.8842 0.524177 -12.0679 7.43335 20.5065 1.51263
266 89 2 -5.80561 0.333765 -12.0982 -1.47889 13.9735 8.62289
521 174 2 -3.46322 1.52425 -13.9979 18.5502 17.2459 17.6043
522 174 2 -1.82289 1.50464 -13.8208 -3.85397 8.66007 6.95636
520 174 1 -2.67811 1.91289 -13.4274 -12.8436 -28.4968 -22.7186
620 207 2 -0.0222472 1.69753 -11.3377 1.44819 -9.86231 25.4488
83 28 2 -6.44856 4.60084 -12.8465 12.936 -11.587 10.8143
82 28 1 -5.4708 4.22797 -12.9323 -0.258082 -0.204472 -20.2715
84 28 2 -5.60737 3.38525 -13.5484 8.48088 11.2302 7.1258
619 207 1 -0.22605 1.48419 -10.3278 -4.41223 14.1126 -31.6461
621 207 2 -1.15396 1.88212 -10.152 6.3151 -5.92209 3.15924
317 106 2 -3.08456 5.0227 -10.0128 -8.8716 8.3425 7.26651
214 72 1 -5.85647 7.09119 -16.0212 -16.0889 -7.72498 -5.99935
180 60 2 -5.71107 2.70546 -11.6436 -33.8193 -8.80722 2.40255
178 60 1 -6.57682 2.14786 -11.4069 25.9989 -6.60577 8.02306
560 187 2 -0.884545 5.70021 -10.9189 1.19733 9.79501 14.5236
207 69 2 -2.85618 5.65589 -13.6285 0.522431 4.81571 5.97185
205 69 1 -3.4418 6.09831 -12.8947 25.9457 1.93453 -9.53913
226 76 1 -0.875205 4.61464 -12.2994 -15.6581 4.13183 30.3623
392 131 2 -2.52612 4.79363 -16.0118 10.6053 -0.641108 -3.66778
228 76 2 -0.112814 4.47518 -12.9343 11.5569 0.585271 -18.756
227 76 2 -1.75928 4.19561 -12.5833 2.8381 -3.07598 -7.07166
561 187 2 -0.845799 7.12785 -9.89408 -2.38081 -1.14888 -12.3373
559 187 1 -0.909096 6.11435 -9.95124 4.07817 -7.72286 -3.10369
333 111 2 -5.12139 7.13759 -10.8329 -0.198537 -0.522322 9.75499
393 131 2 -1.00627 5.21958 -15.2378 8.50334 -9.546 -4.04737
391 131 1 -2.02198 5.22452 -15.2133 -12.7336 14.8882 13.9515
206 69 2 -4.36151 5.74003 -13.0605 -24.1892 -19.5954 4.96311
516 172 2 -5.81228 4.73666 -15.8239 -1.8161 17.5182 9.83733
43 15 1 -5.83915 2.27708 -14.6429 3.61539 -9.46812 14.7061
44 15 2 -5.75692 2.81849 -15.5117 -3.84799 3.55047 -8.53717
45 15 2 -5.58879 1.30884 -14.7982 -2.42323 -8.23167 -4.80053
165 55 2 -1.07991 6.99721 -16.0454 15.825 8.4723 -3.85205
396 132 2 1.6818 0.80572 -12.8833 14.2376 -0.194062 -1.94218
362 121 2 5.70881 5.83949 -15.7345 -3.13683 -7.81852 -1.95356
179 60 2 7.01619 2.59925 -11.7469 11.0941 9.55933 -3.56695
458 153 2 6.23099 0.277946 -9.81937 -14.3941 -11.5217 -0.915949
356 119 2 4.03726 0.160902 -13.718 2.88733 -11.5559 -3.76788
355 119 1 3.67568 0.79435 -14.4274 2.60028 16.0743 -10.7537
201 67 2 4.33494 4.36511 -15.222 -16.3913 -21.7007 8.72615
175 59 1 6.52627 4.42547 -12.4022 -6.73587 -8.11645 -5.48019
394 132 1 0.827566 1.25202 -13.1824 -26.3023 7.05956 -0.891621
395 132 2 0.741818 1.39849 -14.1885 9.42368 -3.29217 4.57716
363 121 2 5.86877 6.34766 -14.2798 0.187774 5.61899 15.7038
438 146 2 4.02616 4.31198 -10.1879 -10.6615 8.59784 7.7912
436 146 1 3.09565 3.88245 -10.357 18.6145 -12.1467 -32.812
361 121 1 5.6449 5.49057 -14.7746 -0.179689 7.10164 -9.94447
177 59 2 5.96992 4.80301 -11.6668 -10.8562 7.93738 37.1197
556 186 1 2.83183 7.07112 -11.6424 7.40055 -4.12518 -6.59776
176 59 2 5.97376 4.63308 -13.2139 -5.91653 2.66054 -29.7754
357 119 2 3.67733 0.414767 -15.3971 -7.43558 -2.5784 15.4704
477 159 2 0.938659 0.32125 -9.77669 28.3308 -1.0528 14.7381
476 159 2 2.5151 0.365674 -10.1933 13.4487 11.0526 -4.44163
645 215 2 1.61695 4.63816 -14.5113 7.25747 -5.76803 -1.28901
643 215 1 0.962038 5.39981 -14.3886 -15.3778 -21.8237 -9.30433
644 215 2 1.4582 6.26634 -14.3301 7.54902 24.3394 8.83204
307 103 1 3.28398 1.41064 -11.2433 19.1466 1.53521 -15.6502
308 103 2 4.25575 1.31552 -11.5391 -5.34797 -11.7105 2.90566
309 103 2 3.23783 2.43335 -11.1132 -16.1021 4.68599 7.32685
558 186 2 3.75442 6.86334 -12.0586 -15.9434 8.0371 8.08659
199 67 1 3.53994 3.67112 -15.2422 14.1339 30.1302 -5.66096
200 67 2 3.78734 2.80267 -14.7702 2.48006 -8.85953 6.15705
382 128 1 5.37447 5.27942 -10.0566 4.78078 -12.8247 30.3853
383 128 2 5.61113 6.22966 -10.2956 2.01158 15.9196 -3.21292
58 20 1 -1.96536 -0.771366 -8.97491 -21.4464 13.8832 13.0561
59 20 2 -1.13477 -0.601813 -8.41483 5.38007 -5.76492 5.20451
648 216 2 -4.87489 -1.55619 -7.584 -3.38449 -6.46441 -1.14174
646 216 1 -4.2303 -0.757773 -7.53494 3.83706 6.05198 5.94101
60 20 2 -2.80632 -0.576707 -8.3518 17.6751 -11.9119 -18.785
627 209 2 -3.07292 -4.74557 -8.85456 19.3961 10.162 -6.98685
625 209 1 -3.87961 -5.02986 -8.31733 -14.3906 -6.51748 -2.44891
376 126 1 -1.51574 -3.90752 -9.52582 0.412578 -8.49762 -2.21431
378 126 2 -1.24922 -3.47609 -8.65047 -9.19096 9.85459 11.6483
349 117 1 -7.0268 -2.68551 -4.5194 -21.1976 2.75593 6.62525
553 185 1 -2.51941 -6.7478 -6.7923 -2.23326 4.79201 -11.2502
351 117 2 -7.12049 -3.36032 -5.27261 2.58538 -0.504381 -2.68581
369 123 2 -6.3667 -3.44827 -8.49649 -14.8842 13.6538 -8.76981
368 123 2 -4.83417 -3.69909 -8.09353 -4.10918 5.71657 13.5128
367 123 1 -5.65075 -3.09457 -7.86839 25.9679 -8.75525 17.1784
600 200 2 -2.34162 -5.4607 -3.57471 1.72181 -11.2801 23.6263
88 30 1 -0.0178131 -6.09306 -5.8598 18.3018 -2.45445 24.3149
153 51 2 -6.81469 -6.70647 -5.93162 -10.7344 -8.39575 4.06876
89 30 2 -0.805067 -6.71569 -5.9823 -17.3428 -4.04777 -7.11422
626 209 2 -4.45351 -5.6194 -8.93431 -0.464412 -2.7348 -0.885708
159 53 2 -1.90801 -0.610538 -4.44051 7.55078 -5.49068 5.34541
555 185 2 -3.11554 -5.9971 -7.16637 0.547525 1.50964 -5.59551
332 111 2 -6.07507 -6.72852 -9.53198 5.72006 -10.0404 -8.27271
157 53 1 -1.39817 -0.938498 -3.59784 -9.93118 6.44509 -10.0009
354 118 2 -4.46916 -1.78881 -3.44173 4.13952 6.64492 -8.07107
353 118 2 -5.82649 -2.70655 -3.27506 1.84936 7.01383 -3.30029
7 3 1 0.402655 -1.31743 -7.37941 -25.6374 -10.158 34.9021
9 3 2 1.05393 -0.937425 -8.05565 20.7758 -9.92762 -9.20285
459 153 2 4.99764 -0.494329 -9.03236 -6.32371 -11.906 21.4426
8 3 2 0.566921 -2.25312 -6.9152 8.55564 31.6806 -31.2364
623 208 2 3.18691 -4.99518 -9.25467 -1.00319 6.5302 -11.754
14 5 2 5.95753 -6.26793 -9.04611 9.1216 -1.24533 18.323
37 13 1 1.38295 -3.88849 -8.00262 -14.68 -0.649879 19.4365
39 13 2 1.96875 -4.15907 -7.20226 -1.86808 -4.099 6.02753
90 30 2 0.139783 -5.59586 -6.71395 3.27475 9.63486 -14.1589
38 13 2 2.09727 -3.84443 -8.73522 -1.30801 2.8929 -16.2566
151 51 1 6.60151 -6.64899 -6.01121 -1.85902 11.5416 -37.5762
120 40 2 3.23085 -5.8826 -6.98691 -0.426941 2.06862 -4.20702
118 40 1 3.09083 -5.12341 -6.31175 0.203861 -5.08029 8.81395
152 51 2 6.21729 -6.47565 -5.09226 -8.34759 7.51249 22.7494
379 127 1 6.02827 -5.83524 -3.53349 10.4619 -2.07842 4.32872
31 11 1 1.51051 -6.15782 -3.47543 17.7769 5.78923 18.0503
119 40 2 3.3243 -5.46182 -5.381 0.995095 -3.18047 1.11108
538 180 1 3.16688 -2.44117 -5.80092 -4.14431 22.5611 16.7806
540 180 2 3.07954 -3.41605 -5.50065 -1.45153 -1.34971 -6.12013
539 180 2 2.46561 -1.83244 -5.34395 0.721207 -9.20823 -1.52033
67 23 1 4.96096 -1.0232 -7.31329 3.67402 16.993 -2.42735
32 11 2 1.05654 -6.32868 -4.3464 -16.0248 9.01212 -39.4224
115 39 1 3.09825 -6.62503 -8.7198 -8.53917 9.3175 0.61387
68 23 2 5.4088 -1.91424 -7.13869 3.95293 -4.31414 -4.42268
69 23 2 4.26396 -0.955254 -6.56852 -4.85922 -4.4162 -2.75231
350 117 2 6.51017 -2.23671 -4.32779 17.0721 -3.60987 -2.83214
209 70 2 4.33233 -1.4139 -4.22701 7.00016 2.66809 -3.08338
208 70 1 4.8195 -0.54777 -3.9797 -20.6269 -10.3435 5.643
210 70 2 4.09061 -0.0320376 -3.45477 13.0446 5.17035 -8.2482
198 66 2 0.236892 -1.35854 -3.80161 -10.1462 10.5964 -1.87161
196 66 1 1.25383 -1.31376 -3.9141 19.1869 -22.6405 0.0533859
197 66 2 1.65572 -2.17908 -3.51598 0.705257 6.31512 0.985846
532 178 1 -6.95389 6.68228 -8.39216 -19.986 21.0717 -8.79501
534 178 2 -6.31043 5.93432 -8.27143 16.1983 -16.0697 5.41154
316 106 1 -3.71279 5.50947 -9.35463 14.4749 3.56953 1.83976
647 216 2 -4.74126 0.108857 -7.38192 -2.93476 0.0241932 -5.64348
306 102 2 -4.49792 0.498784 -4.91767 2.563 3.75933 8.87552
370 124 1 -5.68141 6.55133 -5.67729 12.8766 -33.2427 11.1542
412 138 1 -2.97798 1.97713 -7.9153 23.046 -8.17578 -6.6562
371 124 2 -5.55512 6.82685 -4.70456 2.08405 2.32193 -0.81424
413 138 2 -3.75618 2.61245 -7.79624 -4.72534 14.1439 1.99569
414 138 2 -2.06459 2.45342 -8.11637 -19.8804 0.915791 13.4495
554 185 2 -3.06799 7.19314 -6.09637 5.60874 -8.89236 6.11774
133 45 1 -2.58683 0.9338 -5.21455 -5.80706 -18.6112 7.61525
135 45 2 -2.56895 0.939967 -6.22777 0.777338 9.23906 -14.4904
134 45 2 -2.25183 1.79615 -4.79337 4.20174 7.07283 1.73498
374 125 2 -3.37828 5.77693 -4.10974 0.991458 -5.7254 -10.4194
318 106 2 -3.11931 6.19683 -8.85221 -10.9581 -12.7228 -6.90455
305 102 2 -5.97204 1.20094 -4.69629 -20.4811 7.0631 -3.58853
304 102 1 -5.20447 0.762245 -4.21906 16.1787 -8.74183 -4.53931
372 124 2 -6.19613 5.63178 -5.64068 3.17019 24.3023 -1.81113
29 10 2 -5.90963 2.42056 -8.07365 0.976011 -9.47082 -8.89345
30 10 2 -6.38306 1.62676 -9.52365 7.87726 5.41939 -2.24822
365 122 2 -0.0384452 2.60368 -8.37937 2.49634 3.22148 0.0540597
366 122 2 -0.252 4.27994 -8.11843 -3.96569 -16.7955 0.653869
364 122 1 -0.637637 3.32342 -7.97239 5.69932 13.6794 -8.03838
28 10 1 -6.2829 1.55051 -8.50841 -8.85092 10.4318 6.74658
420 140 2 -0.874894 5.56407 -5.58344 -22.9859 21.3306 -10.066
418 140 1 -0.226071 4.82351 -5.46863 24.3529 -27.8138 35.3858
535 179 1 -5.17484 3.95242 -7.59463 1.27323 -18.5065 -17.2918
536 179 2 -4.87572 4.55823 -8.3793 7.15115 3.35749 8.82901
537 179 2 -5.79477 4.37816 -6.91587 -5.96268 6.5592 6.68535
99 33 2 -1.46497 3.59509 -4.54317 -0.0977113 -0.201088 27.4677
97 33 1 -1.6271 3.1292 -3.61409 -7.1222 3.23447 -24.0754
375 125 2 -2.24565 6.78772 -3.77386 13.4809 6.72911 -6.53487
373 125 1 -2.58335 6.25568 -4.57056 -17.2626 -3.29342 26.2763
475 159 1 1.90578 0.02172 -9.44908 -47.9624 -7.57591 -6.79358
533 178 2 7.19615 7.01872 -7.46211 -3.43922 -0.372432 2.42863
285 95 2 0.950824 0.320478 -6.35775 -2.85074 1.52506 4.30433
283 95 1 1.27645 1.17179 -5.88725 8.56984 -0.192271 -11.8843
284 95 2 1.75616 1.80038 -6.55725 -4.34947 -1.81299 2.76949
80 27 2 2.864 4.90795 -7.58315 1.95769 -2.62102 10.4657
116 39 2 3.52951 6.98453 -8.34715 8.64301 -13.8381 8.42772
87 29 2 6.33954 2.31691 -8.01221 -6.32631 -3.62851 8.36256
12 4 2 6.87521 3.82316 -5.02877 15.3432 2.65825 12.987
10 4 1 6.91235 4.49746 -5.80261 10.7933 -8.354 -12.8042
11 4 2 5.91745 4.52354 -5.94214 -16.3247 9.88162 -6.85682
419 140 2 0.124274 4.37614 -6.30303 -2.68281 2.24903 -15.5629
474 158 2 0.282364 6.13046 -8.56736 0.30432 -5.91314 2.23797
437 146 2 2.43151 3.83991 -9.61832 -10.0845 11.6324 22.9675
122 41 2 3.7169 2.64176 -7.45832 13.6924 3.86914 13.7526
530 177 2 5.9562 1.81249 -5.82269 10.4287 -2.44721 20.3822
123 41 2 2.6919 2.32782 -8.57237 -9.84481 -14.1133 -20.6432
121 41 1 2.71783 2.70236 -7.64954 -3.70656 5.38093 3.72848
329 110 2 1.96553 1.92315 -3.31007 32.2419 -7.17622 -10.7282
330 110 2 2.54266 1.24757 -4.69888 3.78605 8.5673 31.6773
85 29 1 5.42838 2.15629 -7.55385 0.0420084 -32.2256 -7.07208
636 212 2 1.42386 5.08225 -4.37077 -15.5961 -11.33 -3.25317
86 29 2 5.22808 1.12529 -7.58939 6.70025 25.25 2.54442
634 212 1 2.08197 5.49406 -3.71777 10.2821 10.4162 1.7314
384 128 2 5.606 5.17786 -9.04099 -5.55945 2.24197 -24.4351
328 110 1 2.87461 1.55811 -3.73824 -41.8483 7.97577 -15.2506
79 27 1 3.60424 5.53505 -7.24723 5.75551 11.0522 -23.6471
473 158 2 1.80519 6.36905 -7.92396 -11.6827 -4.20108 6.32503
81 27 2 3.96961 5.17366 -6.35891 -3.65727 -8.87494 6.72772
472 158 1 0.951186 5.7925 -7.85851 1.86999 6.18489 -19.3393
635 212 2 1.92307 6.4963 -3.78913 3.16128 4.71033 5.78051
229 77 1 4.01631 4.21835 -4.99001 1.47431 -1.00852 10.2301
231 77 2 3.49501 4.99183 -4.52675 1.64995 -11.6023 0.467477
230 77 2 3.75148 3.38088 -4.45054 4.27035 3.66768 -8.00724
529 177 1 6.38984 1.59182 -4.89781 3.36655 19.4466 -33.0358
531 177 2 5.8456 0.875721 -4.44465 -12.4855 -19.348 10.0928
598 200 1 -2.34008 -5.69253 -2.55904 -14.3247 6.76173 -34.0101
599 200 2 -2.1629 -4.7806 -2.12501 10.1961 -0.349824 10.2131
280 94 1 -5.90066 -6.89959 -2.71995 -3.66143 14.7412 -7.77214
340 114 1 -1.71319 -0.876212 0.425221 -10.2937 -14.1366 8.9382
341 114 2 -2.34847 -1.6388 0.185912 -3.43611 -4.41731 -1.88413
261 87 2 -2.61789 -6.57351 -1.00929 -4.72426 4.99554 4.27895
232 78 1 -4.22758 -2.11606 -0.158761 45.2421 -2.47111 -21.7719
234 78 2 -5.07002 -2.49138 0.203361 -36.5088 -9.09037 11.7808
260 87 2 -3.41691 -6.55481 0.515456 -3.23109 7.03304 -6.51226
259 87 1 -2.88707 -7.10362 -0.165658 5.88391 -17.8633 -8.14241
548 183 2 -4.27868 -5.29218 1.75457 -9.5348 0.150482 -8.98584
549 183 2 -5.82403 -4.92633 1.25356 3.4209 -0.552324 -0.0567104
547 183 1 -5.02011 -5.53181 1.07531 10.5472 5.74894 8.99161
352 118 1 -5.03243 -2.2785 -2.76095 1.8999 -12.687 8.6407
233 78 2 -4.21728 -2.30832 -1.18324 -7.32591 3.69693 10.8063
18 6 2 -1.01813 -2.68461 -1.9641 -1.78175 12.9218 -5.62084
16 6 1 -0.825537 -3.61099 -1.61347 -4.48889 -4.51146 3.13834
575 192 2 -3.65889 -2.72502 1.73978 -1.65793 2.36097 -34.7711
254 85 2 -5.85073 -7.19264 0.535701 5.56526 8.30022 3.05289
158 53 2 -1.49633 -0.0897334 -3.01509 -1.62052 -14.3993 9.16522
462 154 2 -0.950853 -2.50577 1.45941 -7.85057 -2.19632 -11.219
460 154 1 -0.642997 -3.16248 2.16762 15.7684 19.093 8.37648
461 154 2 -1.14782 -4.03974 2.19701 -16.3834 -14.9377 -7.43934
576 192 2 -4.01106 -1.87838 3.10489 3.8894 -3.45656 -2.57831
302 101 2 -2.32459 -6.04215 2.95764 4.62291 -9.75124 6.73174
301 101 1 -2.06976 -5.65977 2.05623 24.4382 -15.5718 -29.9298
281 94 2 -4.94712 -6.5663 -2.64218 2.80583 8.91511 5.07163
303 101 2 -1.50569 -6.31771 1.42495 -25.858 28.5621 28.8328
342 114 2 -2.24701 -0.0782307 0.0664613 11.8747 6.59791 -4.35845
276 92 2 -0.127163 -0.212472 0.194977 -20.4398 3.33146 2.48938
593 198 2 -4.72106 -0.0104947 -0.270659 -13.0511 11.7227 19.2063
496 166 1 -6.95122 -2.40628 0.810834 1.64519 -4.60752 -13.06
497 166 2 -6.91543 -1.95287 1.71603 3.93861 -1.78726 14.7346
504 168 2 -7.03494 -0.0758331 -2.4449 1.98987 4.60607 0.176081
502 168 1 -6.39472 -0.243508 -1.67335 -2.31895 -12.4785 5.14944
503 168 2 -5.77565 -1.03244 -1.9383 -6.35102 7.34747 -3.00037
212 71 2 -1.42568 -1.03279 2.90243 -2.51376 -3.50424 8.07109
574 192 1 -3.6737 -2.76728 2.72714 -3.57869 -1.91237 35.8393
213 71 2 -2.80896 -0.155322 3.00217 4.71592 -1.78981 10.1096
381 127 2 6.92568 -6.11265 -3.10198 -2.67849 -3.73947 -5.4784
33 11 2 0.95629 -6.74247 -2.86818 -10.4838 -9.26131 14.7717
380 127 2 5.58662 -5.1844 -2.88986 -7.07325 4.36843 6.13022
17 6 2 0.114442 -3.89697 -1.85935 3.70117 -0.119067 0.35981
500 167 2 3.27664 -3.77298 -2.23105 6.18496 -1.54579 1.35254
499 167 1 2.50541 -3.64483 -2.88121 -9.88438 6.79624 -0.602085
449 150 2 3.1501 -0.812916 0.729114 18.6204 10.5477 -12.4906
490 164 1 5.15559 -4.45743 -1.17663 -19.9332 6.24375 -0.587871
501 167 2 2.01787 -4.54233 -3.01195 4.79493 -7.07146 -4.93548
491 164 2 4.4897 -4.38857 -0.367341 11.9368 -3.61352 -12.01
492 164 2 6.01475 -4.86441 -0.848358 10.573 -1.32545 4.2028
398 133 2 4.06869 -5.80484 0.910786 -8.84774 20.7162 -5.32364
397 133 1 3.62311 -4.85231 0.91914 2.08748 -34.2077 14.1646
399 133 2 2.78111 -5.0401 1.49494 -1.66596 7.90518 -2.04152
586 196 1 1.45448 -5.30816 2.55476 17.9133 -17.5585 21.1323
4 2 1 5.6834 -0.607646 3.20342 -6.86964 -7.93973 2.2567
269 90 2 2.41668 -2.41619 2.4721 -7.7894 -3.67558 9.26172
498 166 2 7.10038 -1.7353 0.159889 -0.2798 1.01504 -7.31528
448 150 1 3.53785 -0.080043 0.071831 -19.9697 -22.0393 0.689963
311 104 2 0.78731 -6.20684 1.31882 -2.27535 -2.45356 -2.45428
310 104 1 0.403418 -6.91692 0.66229 12.8582 -9.33591 -3.21954
268 90 1 2.88158 -2.24408 1.577 8.88846 2.367 -22.8854
270 90 2 3.06363 -3.12924 1.06515 0.21319 9.07603 11.9119
52 18 1 6.27843 -6.96288 2.71482 -11.7743 1.84647 1.45901
405 135 2 0.495157 -2.82408 3.08087 8.1504 1.93977 7.23984
588 196 2 1.27671 -4.38951 2.97481 -2.30977 4.17409 -1.85466
53 18 2 5.47783 -7.01548 2.06645 6.9215 -7.2133 -2.34864
513 171 2 4.94695 -4.31884 3.02446 -6.9185 -16.1632 -19.5975
282 94 2 -5.80113 6.54799 -2.75787 -0.147597 -16.0387 3.64914
300 100 2 -5.25749 4.69409 -2.65787 -14.6336 -15.3566 -3.35114
278 93 2 -4.54376 1.66642 -2.91057 -13.6381 -2.97003 0.25198
277 93 1 -4.34731 2.28021 -2.10603 21.7065 4.93575 1.75039
279 93 2 -5.17521 2.65877 -1.65007 -6.20616 -4.96505 0.923124
98 33 2 -2.43109 3.51315 -3.09471 5.64798 -0.681311 -7.48233
603 201 2 -7.06753 4.17179 -2.31507 -4.82728 -8.49175 12.6693
297 99 2 -0.0245457 2.86384 -3.12024 -25.0008 10.6153 -2.99621
150 50 2 -7.20604 4.65751 2.66652 3.53946 1.64707 -16.7678
288 96 2 -1.3588 6.23266 -2.22106 30.0296 4.16047 1.07667
255 85 2 -6.85326 6.78086 1.80576 10.1618 -4.59933 -28.5925
253 85 1 -6.355 6.46539 0.928917 -17.3327 -6.24256 21.2323
286 96 1 -0.371507 6.54432 -2.35308 -23.1289 0.444931 6.27317
91 31 1 -2.70587 4.64444 -1.02934 10.7333 -1.13736 2.01573
567 189 2 -4.78871 0.377985 2.37111 -6.25295 -0.907171 0.80582
298 100 1 -4.43783 5.23524 -2.8611 18.6618 1.72488 16.2184
299 100 2 -3.79633 4.94168 -2.06097 -7.41816 7.97498 -20.2312
546 182 2 -2.55564 1.63143 -1.67075 -5.09785 -0.666712 -4.62479
92 31 2 -1.9283 4.04274 -0.721932 -5.09907 7.91741 1.76695
93 31 2 -2.84771 5.45488 -0.408216 3.71254 0.710806 0.445584
592 198 1 -4.87051 0.493679 0.632975 5.4647 1.06821 -3.38836
594 198 2 -5.89145 0.760218 0.721948 19.6307 -2.808 -2.89904
545 182 2 -0.987647 1.29175 -2.16552 5.72098 10.9998 -0.957496
168 56 2 -3.22118 2.67521 2.5375 3.6186 -23.1724 -20.6047
544 182 1 -1.8071 0.928023 -1.69927 -6.34491 -0.626791 5.3787
167 56 2 -3.4388 1.42634 1.29399 3.51576 21.5463 10.8267
20 7 2 -1.19901 2.94804 0.909505 -6.67853 -0.87659 -0.897672
19 7 1 -0.355091 3.31251 0.451466 10.318 -13.3436 11.0017
166 56 1 -2.77637 2.05605 1.80916 -8.31408 4.95382 6.41513
287 96 2 -0.0530449 7.06084 -1.53332 -6.67712 -4.22102 6.5023
506 169 2 -7.13721 3.63573 -0.0751188 -12.3228 -9.00271 3.4845
507 169 2 -6.36471 5.03682 -0.362591 2.71971 9.4725 11.9791
505 169 1 -6.45664 4.07615 -0.685279 12.4863 5.10941 -17.3539
320 107 2 -0.114831 6.12563 2.21396 7.28073 -3.30198 -1.20969
601 201 1 6.99155 3.85658 -3.20328 5.72376 8.8162 -3.98951
602 201 2 6.46673 2.99446 -3.09675 -1.91406 -7.38693 1.46791
296 99 2 0.656837 2.95005 -1.52748 -15.9051 4.71509 5.3307
295 99 1 0.795284 2.86084 -2.52373 41.873 -16.9996 2.86728
450 150 2 3.68155 0.812701 0.506134 2.68317 8.34083 13.2965
235 79 1 4.07909 6.79742 0.973477 -23.6874 -8.11876 0.0530711
275 92 2 1.45638 0.0274592 0.0125503 -17.1864 19.4171 8.50624
274 92 1 0.592321 0.491101 0.377151 44.1947 -12.8611 -5.02905
21 7 2 0.346727 2.57776 0.660973 -10.9236 6.12934 -8.91256
389 130 2 6.6634 0.551465 2.06276 5.37569 -5.1135 -0.943323
257 86 2 3.92852 1.89226 -2.42236 12.7101 -2.05655 -5.66823
236 79 2 3.86177 5.87375 1.41616 13.104 12.7034 -5.47796
258 86 2 4.33314 0.791302 -1.3426 8.31908 -6.79966 7.66338
256 86 1 4.70828 1.63452 -1.78549 -20.2452 7.1755 -4.48765
237 79 2 3.42518 6.76404 0.15578 17.5909 -1.1786 8.3695
312 104 2 1.16689 6.91496 0.318347 -13.589 9.6601 2.54032
183 61 2 4.7232 3.25874 0.793026 -4.34932 8.8117 2.80857
182 61 2 5.27455 2.68306 -0.659902 4.10165 -6.21356 -3.32888
181 61 1 5.56205 3.08464 0.250401 2.02024 0.940247 11.2732
57 19 2 2.10209 5.36878 -1.739 2.55597 15.6646 9.17914
56 19 2 2.42288 4.80614 -0.256718 1.99372 7.40067 1.70879
55 19 1 2.2888 5.68688 -0.759848 -8.71195 -18.0668 -12.8022
321 107 2 0.0405959 4.63262 1.57412 1.2534 -5.25947 3.05248
319 107 1 0.326599 5.2127 2.37855 -3.18897 9.13912 -7.53855
604 202 1 3.60771 1.69502 2.77656 36.4271 -6.34577 -4.69604
606 202 2 4.50493 1.1619 2.95653 -37.6776 9.23408 -3.11438
388 130 1 7.21422 1.20733 1.50433 -13.0817 -13.9758 16.2656
390 130 2 6.55388 1.9539 1.33892 -1.01157 17.3579 -16.8407
444 148 2 0.232215 0.6119 2.42708 12.2729 3.06081 -2.92
605 202 2 2.78515 1.09262 2.73911 1.6845 -4.34251 8.19868
416 139 2 3.42703 3.38044 2.33928 4.37676 -5.59449 -0.711526
417 139 2 2.37805 4.58831 2.14451 -15.4401 6.7622 2.60514
415 139 1 3.28865 4.27312 1.84141 3.39004 -3.88002 -0.349423
50 17 2 -5.76712 -1.37255 3.79581 4.38725 2.98679 -1.47605
49 17 1 -6.59045 -1.88978 3.47714 0.517616 -1.08668 3.2884
51 17 2 -6.49852 -2.90125 3.62543 10.2628 -4.18997 1.85318
485 162 2 -2.68754 -5.23524 4.89911 20.3645 11.6958 14.4344
484 162 1 -2.40839 -4.22233 4.93233 -20.6275 -2.32581 -3.63905
486 162 2 -2.94324 -3.8709 4.13228 4.10399 16.8145 -5.2862
402 134 2 -2.88603 -3.29592 6.40228 3.02197 -6.1646 2.20163
400 134 1 -3.04415 -2.85091 7.32128 -7.81226 -19.4399 2.13349
240 80 2 -5.88359 -6.52278 6.56449 4.18978 -9.95238 -5.43041
190 64 1 -2.39047 -6.76031 5.17103 13.3669 -4.88466 -19.1464
528 176 2 -0.865112 -3.52101 5.89091 -5.75333 3.79691 -15.5743
493 165 1 -2.35263 -0.0592247 6.27686 -10.5866 3.5421 15.326
494 165 2 -2.49711 -0.037332 5.24897 6.79148 -3.83868 7.93377
401 134 2 -3.03426 -1.8723 7.12012 5.88952 26.8527 -5.79017
577 193 1 -5.57042 -3.74613 7.98683 14.707 -8.12567 10.3945
578 193 2 -4.61526 -3.39117 7.77477 -13.3158 3.48249 -3.86959
291 97 2 -2.66988 -2.02262 9.37417 1.0051 -18.3098 -4.26549
294 98 2 -0.0175529 -5.27149 8.94691 23.0724 12.3278 32.6637
77 26 2 -0.680006 -0.172099 7.33899 -7.04529 9.70923 -2.25606
41 14 2 -4.10012 -4.72515 9.57622 -3.93935 -2.11962 16.5351
101 34 2 -5.73422 -5.67711 4.06887 8.80079 -2.66547 2.32378
100 34 1 -6.01395 -4.71949 3.83425 5.95587 -2.53185 3.67112
526 176 1 -0.091383 -2.96406 6.25979 -0.552154 -2.35459 3.86886
102 34 2 -7.00172 -4.8388 3.76978 -21.5705 4.13249 -5.02823
292 98 1 -0.730347 -5.43587 8.27712 -31.9411 -11.9722 -44.949
211 71 1 -2.01457 -0.509794 3.55707 -9.63603 7.00131 -15.5206
579 193 2 -6.37087 -3.09602 7.80695 8.07962 -8.62557 -10.0148
252 84 2 -6.81193 -2.60883 9.59174 0.274515 11.2249 9.82641
251 84 2 -5.93883 -1.23524 9.39686 4.34469 10.6989 -5.67857
238 80 1 -6.67496 -6.25163 7.14689 -4.532 11.2684 -1.55055
239 80 2 -6.45128 -5.29161 7.43471 1.42689 4.34944 7.4203
192 64 2 -3.11376 -7.1902 5.73397 -6.12955 -7.67988 18.5743
191 64 2 -1.45185 -6.80762 5.59464 -13.3377 -2.96817 1.77452
293 98 2 -1.58873 -4.89776 8.36972 5.31757 0.955251 6.8896
6 2 2 6.68848 -0.868635 3.29409 -4.26077 -2.12829 2.47212
587 196 2 1.7419 -5.9119 3.39106 -11.0724 14.2408 -21.8803
5 2 2 5.27122 -1.55875 3.28263 -3.09163 19.9978 -4.12699
125 42 2 6.41797 -2.08701 6.51107 3.92293 -0.404276 -0.314792
54 18 2 5.88778 -6.84266 3.65252 2.36925 2.43592 5.42017
78 26 2 0.22108 -1.34089 6.87091 13.2821 15.4386 6.41176
76 26 1 0.309254 -0.40464 7.33803 -13.1843 -20.5248 -11.1979
511 171 1 5.22939 -3.9123 3.8856 11.3921 39.4081 22.9709
512 171 2 5.54944 -4.56189 4.62321 -8.29818 -14.2969 -9.78412
155 52 2 4.68592 -6.14126 5.94327 11.5426 0.111118 -10.0044
154 52 1 5.56542 -6.00255 5.39703 -13.9786 -6.27206 18.7433
527 176 2 0.077517 -3.43947 7.13786 9.13272 -0.355285 7.37547
65 22 2 3.25897 -7.17784 7.83635 -1.32614 11.7577 -9.67909
404 135 2 1.0045 -2.47256 4.62861 -9.62866 -0.770685 5.21134
66 22 2 2.87608 -5.53268 7.56729 -1.46391 3.66738 7.03283
64 22 1 3.1668 -6.40762 7.14048 1.49422 -13.8095 -5.55243
156 52 2 6.33543 -6.09313 6.07515 4.46161 -1.56921 -1.30196
582 194 2 2.17782 -6.64572 5.59619 9.83864 -1.20436 22.6185
580 194 1 2.08379 -6.79287 4.60306 -17.0541 25.7646 -20.7117
327 109 2 4.25224 -4.53647 9.51402 5.5503 -2.71932 -3.29566
26 9 2 2.553 -2.41591 8.87662 -7.56072 -3.81763 -7.94164
25 9 1 2.49753 -3.3749 8.47035 8.23044 -7.44165 -10.1098
27 9 2 2.74049 -3.36244 7.45799 1.97413 12.1792 0.51348
126 42 2 5.72163 -2.88514 7.77776 20.4298 1.73709 4.79268
124 42 1 6.63322 -2.68187 7.30844 -24.1299 7.91776 -11.7615
613 205 1 3.23322 -3.08287 5.9882 -2.00226 -4.92526 23.5962
615 205 2 4.14813 -3.34124 5.65318 6.56101 -0.657807 -17.9394
403 135 1 1.34754 -2.71839 3.69997 -0.552208 -1.96839 -0.409361
445 149 1 1.80053 -1.04498 9.42876 23.4011 11.2745 -10.0417
447 149 2 1.31128 -0.515603 8.67116 -2.5927 -12.775 6.65407
614 205 2 2.6338 -2.64917 5.30112 0.00474944 2.39286 -15.8752
572 191 2 3.47082 -0.195172 9.30182 -27.3616 -6.06261 11.1623
114 38 2 4.29226 -7.20297 9.08024 2.85219 7.27732 6.0027
271 91 1 5.04566 -2.62394 9.42894 -8.95309 4.91808 15.258
440 147 2 1.68701 -4.04154 9.41582 -12.3055 -1.19549 15.7656
273 91 2 5.14341 -1.65206 9.18715 9.22516 16.8416 -16.5921
148 50 1 -6.79511 4.49054 3.56846 1.24985 -1.28481 9.37992
565 189 1 -4.70828 0.151086 3.38001 0.229333 -24.6414 -12.8659
566 189 2 -4.49968 0.994125 3.88095 1.25264 24.6182 7.43451
62 21 2 -6.69586 6.5854 4.26572 21.7398 2.77729 3.62655
61 21 1 -5.81034 7.03269 4.57946 -1.92421 -0.899045 -6.74739
63 21 2 -4.99252 6.45499 4.33963 -14.7142 2.69365 2.13934
161 54 2 -6.34334 0.140182 7.81646 -5.4865 1.63519 -1.86458
95 32 2 -4.66182 6.21991 7.98742 -15.136 0.756281 12.7843
94 32 1 -4.04661 6.52624 7.2545 19.097 -16.4303 -11.5662
96 32 2 -3.46941 5.68759 7.08626 -0.614949 10.1246 -4.13399
563 188 2 -4.2524 2.78769 5.17548 5.12969 -4.29018 5.03743
443 148 2 -0.789415 0.801752 3.59295 10.3523 -2.89658 9.84967
495 165 2 -2.95404 0.602031 6.79738 4.89963 -2.06871 -16.1763
562 188 1 -4.26772 2.93506 4.17114 -20.1581 13.923 -7.99162
564 188 2 -5.0676 3.58605 4.00316 10.9733 -11.7368 -5.03648
589 197 1 -4.13134 2.13758 6.88315 -21.067 31.9216 -5.59427
591 197 2 -3.33921 2.81474 6.79447 -0.881047 -4.97501 3.98963
590 197 2 -4.97889 2.77865 6.93447 23.5416 -18.8964 3.11279
138 46 2 -7.03848 4.58967 6.8282 -4.58569 -3.31445 -5.01055
137 46 2 -6.75325 2.88241 6.62775 -13.3302 11.1985 -2.97551