ITEM: TIMESTEP
41000
ITEM: NUMBER OF ATOMS
648
ITEM: BOX BOUNDS pp pp pp
-7.2219172792074842e+00 7.2219172792074842e+00
-7.2219172792074842e+00 7.2219172792074842e+00
-1.6048705064905697e+01 1.6048705064905697e+01
ITEM: ATOMS id mol type x y z fx fy fz
368 123 2 -0.593135 -4.779 -11.7453 4.94237 -12.2952 -19.0003
367 123 1 -0.566157 -4.01654 -11.0875 -11.5701 -2.04412 9.57509
430 144 1 -6.2951 -5.15039 -12.4981 -20.4837 45.215 -1.38783
432 144 2 -6.96412 -5.01995 -13.2667 5.35368 -1.19916 10.9763
431 144 2 -5.8488 -6.04136 -12.6111 13.8827 -34.3693 -6.39378
369 123 2 -0.512362 -3.1375 -11.587 0.337244 12.7538 -10.9355
348 116 2 -3.90783 -4.28146 -10.9865 -4.86795 4.56929 2.50141
346 116 1 -3.20057 -4.84589 -10.5111 11.0685 -6.93065 -1.91704
347 116 2 -2.29158 -4.60189 -10.9297 -4.56316 3.36458 6.10208
561 187 2 -0.4911 -2.71401 -14.0301 5.80525 -2.3648 0.0717307
2 1 2 -6.38321 -0.846754 -13.9216 -9.41811 -14.4867 4.91364
1 1 1 -5.47229 -0.422177 -14.101 22.8059 17.1363 -4.83578
3 1 2 -4.67131 -1.06486 -14.1736 -9.17487 -9.38704 2.78121
332 111 2 -5.63481 -3.94471 -11.5288 -5.63525 11.358 -2.62997
331 111 1 -5.39507 -3.06847 -11.0147 -13.4132 -5.81134 18.8686
333 111 2 -6.17432 -2.88493 -10.3187 15.6573 -7.09732 -19.5811
455 152 2 -0.368861 -0.85556 -11.2649 2.33692 -3.59231 7.68606
559 187 1 -0.598983 -2.05071 -13.2527 -6.94432 -10.8643 -10.6309
175 59 1 -0.612696 -6.126 -13.0476 -25.5649 -17.9039 18.6645
176 59 2 -1.39247 -6.81984 -13.2384 20.9629 18.3322 3.97448
28 10 1 -5.11635 -0.41163 -10.454 -3.85626 6.44019 -1.57661
30 10 2 -5.03906 -1.38781 -10.7868 -1.67273 -0.679586 -1.21257
177 59 2 -0.3113 -5.60275 -13.8521 0.283888 8.92424 -20.4633
317 106 2 -3.49582 -0.0117937 -12.9001 -15.7952 -26.842 4.41208
456 152 2 -1.76665 -0.160653 -11.5644 -8.29211 2.90071 3.58262
454 152 1 -1.23169 -0.577451 -10.7834 3.33067 2.82694 0.596636
201 67 2 -0.288349 -4.69183 -15.9776 2.43673 -0.36339 0.825587
385 129 1 -3.1768 -2.33265 -14.0357 -5.86426 -19.4674 -32.6804
386 129 2 -3.10605 -3.11368 -14.7136 -9.74644 13.2455 16.6694
387 129 2 -2.20365 -2.04024 -13.9379 6.01594 10.6053 16.2671
376 126 1 -0.72402 -0.0183653 -15.9028 7.64076 -12.5012 -8.53326
620 207 2 0.214334 -6.36873 -11.6361 -6.80491 2.75572 -11.9417
619 207 1 0.865883 -6.71386 -10.9331 22.3017 -26.4744 -2.21833
173 58 2 6.33637 -1.85083 -14.5684 -5.08428 -0.0589849 -17.1736
421 141 1 4.91743 -2.82637 -15.7278 33.625 23.6444 -6.93639
82 28 1 1.45082 -1.39142 -11.5362 6.81035 2.84567 6.88338
84 28 2 2.33926 -1.43995 -12.0389 3.96626 -7.09981 -8.45773
83 28 2 1.66471 -1.81576 -10.6179 -9.26143 3.75736 -3.46388
560 187 2 0.309713 -1.68079 -12.9933 9.14276 2.20912 5.65455
284 95 2 3.43909 -6.0644 -13.1047 -3.54259 -14.8248 7.93737
285 95 2 4.6305 -4.9089 -13.2739 -3.59337 -1.95485 3.11491
283 95 1 3.65971 -5.15876 -13.4909 -3.89229 18.3099 -4.068
14 5 2 5.66164 -4.67284 -15.0393 -2.24477 4.96924 -8.75419
13 5 1 5.93215 -5.65188 -15.1124 27.4001 -15.7388 -2.61708
15 5 2 6.73011 -5.82445 -15.7516 -18.3712 7.75781 8.68328
557 186 2 4.76145 -3.01658 -11.9161 9.85579 -7.17919 -2.17886
264 88 2 3.29522 -3.26488 -13.8106 4.8054 8.59659 6.22516
556 186 1 5.69205 -3.43059 -12.1164 -14.4859 4.62689 1.44177
558 186 2 6.20967 -3.44425 -11.2342 1.20809 1.07018 2.30035
262 88 1 3.37538 -2.28676 -13.484 -17.4433 -4.75511 17.5357
263 88 2 3.72194 -1.70133 -14.23 7.1301 -0.913372 -12.3446
174 58 2 6.18639 -2.25843 -13.0538 11.0505 16.624 -2.15543
172 58 1 6.56046 -1.47979 -13.6623 -8.01892 -15.1827 20.2906
115 39 1 3.99291 -2.80282 -9.78104 -11.1132 27.4669 4.14564
117 39 2 4.13135 -3.83021 -9.73735 -7.75845 -5.76076 1.56026
363 121 2 2.83703 -4.8277 -15.0892 5.46428 -19.0442 -5.12302
199 67 1 0.0404159 -4.03132 -15.2657 -0.441854 9.74334 10.1653
200 67 2 0.67746 -3.34024 -15.6903 -3.96421 -7.26873 -6.30285
249 83 2 2.99494 -0.0281778 -15.1529 -12.2039 5.44009 2.29743
247 83 1 3.22533 -0.48993 -16.0361 5.00048 -5.09332 -12.7577
352 118 1 -5.47799 6.86573 -12.764 2.84723 -18.3183 23.0249
354 118 2 -5.89229 6.05283 -13.2299 -1.77049 -4.08749 -9.05715
353 118 2 -5.65591 6.67475 -11.7548 4.39643 3.31316 -7.86607
359 120 2 -6.61991 0.613682 -11.1909 4.19314 -14.231 0.565581
318 106 2 -3.07591 1.3833 -13.3854 7.34316 2.30522 4.70797
584 195 2 -1.65609 3.6435 -15.765 -0.41713 -5.17539 -3.32219
265 89 1 -2.62841 6.41868 -13.0663 -1.90182 -0.884384 50.0887
267 89 2 -3.57551 6.43986 -12.6563 4.24919 4.53583 -8.48393
266 89 2 -2.72752 6.44053 -14.0698 -2.29619 -3.79676 -35.0514
393 131 2 -5.26258 2.84562 -13.3219 -7.47081 2.72987 -0.455232
509 170 2 -6.88297 3.96482 -12.6921 9.28336 17.4434 -16.8129
508 170 1 -6.76076 4.497 -13.5897 -29.5265 -5.81648 5.89043
316 106 1 -2.75313 0.635008 -12.7671 7.22172 22.8639 -6.59919
147 49 2 -1.73701 5.41699 -11.7119 -7.47127 10.056 -16.6527
392 131 2 -5.43056 1.3053 -14.0215 -3.86958 -18.7432 -0.0985462
391 131 1 -4.92681 2.1923 -14.0223 20.9473 20.91 -4.30171
481 161 1 -2.6741 6.42456 -15.6533 7.45003 -9.10043 -5.85218
43 15 1 -5.8064 5.83258 -10.1253 -2.32712 -39.8385 -0.969971
145 49 1 -1.30917 5.23234 -10.8166 4.30892 18.2348 47.0714
146 49 2 -1.39188 6.06021 -10.1636 -0.314012 -25.462 -27.9804
611 204 2 -0.270809 4.15752 -9.97511 25.1813 -6.05928 0.731049
44 15 2 -6.09041 4.84336 -10.3879 6.76538 34.7431 1.78917
178 60 1 -6.08084 3.29228 -11.321 -29.6202 -27.8666 -7.13831
180 60 2 -5.13484 2.97951 -11.2395 21.2719 -3.14606 6.26037
179 60 2 -6.64339 2.42393 -11.5337 4.65852 19.949 10.3125
377 126 2 -0.346786 0.762615 -15.3701 -4.78081 1.49203 -1.3622
357 119 2 -4.48877 3.03567 -15.4311 1.34125 9.76313 -9.04508
621 207 2 1.53499 7.16472 -11.5024 -8.42539 15.2505 17.1445
349 117 1 2.94065 6.46381 -12.7042 -2.25297 4.49084 -3.80116
351 117 2 3.80363 6.20731 -13.2067 -0.702445 2.99445 -4.84839
358 120 1 6.98934 0.869089 -11.7268 3.73546 14.8952 9.55216
516 172 2 1.60862 6.82531 -14.4794 -11.9878 1.66061 -7.39028
514 172 1 0.977039 6.50071 -15.2296 10.4488 -12.6074 7.43215
515 172 2 0.237743 7.13106 -15.5248 -2.28525 13.7583 1.02395
360 120 2 6.64467 0.0607183 -12.2403 0.92317 -6.87897 -8.2608
38 13 2 4.36731 2.92361 -13.0342 -3.1 -10.5828 15.1474
37 13 1 4.1861 2.04942 -12.5189 5.66072 8.3116 -32.0562
617 206 2 3.05547 1.32201 -13.462 -19.9057 -9.63581 7.23394
39 13 2 4.04323 2.22686 -11.5359 -2.32904 5.91545 14.4535
616 206 1 2.16205 0.849435 -13.7605 13.9633 -4.33033 -1.58063
618 206 2 1.79261 0.240158 -13.0199 4.3711 10.0285 -3.85977
510 170 2 6.75046 4.74108 -13.9762 16.0179 2.049 6.56007
520 174 1 5.0789 6.03118 -14.4881 1.15624 4.35152 17.6209
521 174 2 5.45472 6.98246 -14.5527 -1.39485 6.3616 -2.41514
522 174 2 5.12269 5.63051 -15.4274 2.85241 -8.74116 -9.97079
630 210 2 2.06044 3.71881 -15.4099 -6.14288 4.24119 -10.8763
629 210 2 0.975175 4.85315 -16.0075 18.0859 -3.44655 -1.53928
622 208 1 4.68926 0.954023 -9.74373 3.33763 28.0295 -21.1903
624 208 2 5.33357 0.845867 -10.5603 -8.40197 -5.53664 20.9061
350 117 2 2.69655 5.64788 -12.1364 3.54897 -6.04895 4.836
221 74 2 2.28395 3.94559 -10.3656 12.4533 4.64276 -24.9203
220 74 1 3.10406 4.31523 -10.9145 -31.7129 -9.10155 29.5073
222 74 2 3.55143 4.8589 -10.1861 13.8551 7.46443 -1.34448
572 191 2 6.80929 2.72259 -15.3834 8.21648 -0.397724 -2.35266
476 159 2 -2.30137 -1.17845 -9.25187 -6.01225 8.53047 -3.51245
644 215 2 -0.320487 -4.20732 -9.56506 -0.0411134 4.35299 -8.34516
643 215 1 -0.137735 -4.07965 -8.55487 -1.64573 -5.38782 24.2052
123 41 2 -1.99164 -6.25363 -9.62246 28.7245 -10.1817 8.50966
29 10 2 -4.83876 -0.34711 -9.47904 -2.08995 1.54525 -1.16538
122 41 2 -0.269258 -6.81853 -9.62784 -22.4608 15.6436 -4.08415
121 41 1 -1.2041 -6.76118 -9.1405 -3.51228 -9.11282 -13.6311
638 213 2 -3.48502 -4.70022 -8.60743 5.87835 2.16502 -6.17407
645 215 2 -0.390227 -4.96142 -8.08899 1.81293 3.84464 -0.799514
637 213 1 -3.15098 -4.18089 -7.78659 -19.606 7.17292 -6.76284
639 213 2 -3.06214 -3.20062 -8.06579 2.25447 3.27265 1.06305
131 44 2 -7.15631 -6.15849 -9.18741 10.3606 -6.52769 -1.4023
132 44 2 -6.9238 -5.15817 -7.79343 -1.15686 -5.0271 -9.403
81 27 2 -2.32862 -6.23825 -5.97473 -2.03145 -6.9329 2.32928
627 209 2 -6.21141 -3.50921 -6.59593 -0.810133 3.15878 -5.47099
625 209 1 -5.93335 -4.45935 -6.87082 26.4903 0.802286 3.36062
626 209 2 -4.91321 -4.40148 -7.06338 -13.5149 -2.84138 3.15382
80 27 2 -2.08063 -4.93422 -6.93962 -11.308 9.46336 -7.95024
79 27 1 -1.63648 -5.54052 -6.24515 18.245 -11.7379 22.8833
56 19 2 -3.58482 -6.59065 -4.17864 2.14814 -18.2671 -3.85615
306 102 2 -1.59274 -1.56862 -7.35068 12.9339 0.911495 14.5156
208 70 1 -4.94347 -1.60681 -4.33981 -10.0842 8.18379 8.51239
300 100 2 -1.66155 -4.91504 -4.39744 2.90782 3.46912 -4.54702
420 140 2 -7.21062 -5.13687 -3.39236 3.54464 -5.79372 -7.76332
418 140 1 -6.77407 -5.74843 -4.13035 -15.4389 -17.7312 -3.39452
419 140 2 -5.80687 -5.49782 -4.24953 13.6594 4.21754 0.987333
475 159 1 -2.75039 -1.21137 -8.32197 5.34572 -14.8318 -0.790828
209 70 2 -4.6924 -2.15954 -3.51988 3.56883 1.47068 -3.43843
210 70 2 -5.36082 -0.704701 -4.01847 4.96982 -12.1734 -11.8304
298 100 1 -1.30174 -4.72399 -3.45712 -0.812256 -19.7751 0.484634
381 127 2 -5.5324 -1.56334 -6.11509 -3.58451 1.26683 1.45924
380 127 2 -6.12053 -0.952156 -7.56493 1.20461 4.49042 3.17552
379 127 1 -6.16771 -1.73134 -6.91114 0.289639 -4.53953 6.72284
304 102 1 -0.752936 -1.78224 -6.74906 -10.7994 -2.01388 -17.3582
305 102 2 -0.431787 -2.6863 -7.1241 2.00816 2.02901 7.57915
477 159 2 -3.46498 -0.508309 -8.15098 -3.03555 8.4042 -3.23686
53 18 2 -2.57141 -1.19308 -4.48272 -5.76945 -2.0063 -6.69552
52 18 1 -2.17914 -1.11456 -3.55642 -17.2529 17.9207 8.70271
54 18 2 -1.32274 -1.65901 -3.51258 16.8359 -4.68538 4.13319
343 115 1 6.89091 -2.88822 -9.43341 10.7106 -28.1453 -21.0761
116 39 2 3.10179 -2.48637 -9.32484 4.1581 -20.4586 -12.1402
525 175 2 1.2388 -1.31985 -8.37062 -6.62011 -0.925788 3.48609
345 115 2 6.74348 -3.87354 -9.13404 2.54979 6.45084 -0.649803
344 115 2 6.58177 -2.30241 -8.69608 -8.6442 18.4114 21.9403
130 44 1 6.87009 -5.48975 -8.55501 -10.8376 5.40709 3.05598
474 158 2 0.305885 -7.21874 -4.42541 -10.3866 -6.58338 7.04184
340 114 1 1.82015 -0.823481 -5.96162 11.646 -13.788 3.52247
438 146 2 2.47948 -6.83881 -4.76388 -5.19113 20.5224 13.717
532 178 1 2.50022 -7.06475 -7.68275 -7.39575 -5.6531 -2.5542
342 114 2 0.828898 -0.660756 -6.12556 -11.2481 -7.81474 0.753077
341 114 2 1.89374 -1.8157 -5.62253 -2.36918 12.1161 -6.84845
9 3 2 3.41812 -5.99131 -9.11265 1.84842 -4.16927 4.87973
538 180 1 1.89828 -3.48021 -5.49046 -2.02501 -31.8269 4.31905
539 180 2 1.69416 -4.48394 -5.25043 0.35822 25.5227 3.36376
268 90 1 4.39716 -0.964659 -7.83761 -34.2687 4.90216 27.6681
269 90 2 3.49837 -1.29238 -7.42966 19.9407 14.0017 10.2358
198 66 2 4.16597 -3.9244 -7.6436 -1.52255 -2.11416 -13.5852
196 66 1 4.37108 -4.1056 -6.672 14.9644 -17.9537 13.2282
197 66 2 4.90303 -5.00253 -6.63747 -14.0812 22.0025 -0.672719
270 90 2 4.28166 -1.43072 -8.71342 15.7425 -18.9514 -32.3122
436 146 1 2.15121 -6.02065 -4.20178 6.96579 -22.5204 -9.63914
437 146 2 2.76206 -5.92672 -3.37032 -0.615146 4.10227 -8.12271
8 3 2 5.08832 -5.84381 -9.38177 3.98747 -4.63302 5.55261
7 3 1 4.19098 -5.36583 -9.37093 -9.93489 5.46925 -5.06282
287 96 2 5.23871 -2.98206 -5.42657 -13.3449 -18.0562 -29.6565
288 96 2 6.773 -2.27183 -5.07665 -13.5378 -7.16779 -11.2918
286 96 1 5.81316 -2.4966 -4.77402 30.8006 17.3181 30.0157
523 175 1 1.60168 -2.16434 -8.80905 14.0622 8.17278 -7.55796
524 175 2 0.905876 -2.9431 -8.74913 0.769476 0.344008 4.66302
119 40 2 7.10206 -7.19489 -5.54221 -4.35103 -27.4933 -5.16563
540 180 2 2.76381 -3.62614 -6.0258 4.50238 4.25753 1.19079
575 192 2 0.598555 -2.85192 -4.00614 -5.426 13.0536 17.0389
504 168 2 5.98462 -1.61563 -3.50058 1.94753 1.24594 -6.71484
45 15 2 -5.23826 5.7317 -9.27479 -3.38294 8.06954 -3.74551
55 19 1 -3.31926 7.09664 -4.85617 -6.46092 22.5886 -8.62238
365 122 2 -0.0309964 5.93458 -6.49302 -0.0845046 2.45126 2.33528
57 19 2 -2.75779 6.37836 -4.3796 -2.98606 -2.07075 9.00188
68 23 2 -4.16216 6.2667 -6.40477 3.38128 8.29782 7.8321
67 23 1 -4.68548 6.0298 -7.24733 -12.6782 -0.646421 -11.0257
69 23 2 -5.58562 6.53022 -7.2473 9.14826 -5.89093 4.06217
60 20 2 -0.476691 0.208513 -9.06286 20.1402 30.7993 7.87092
490 164 1 -6.25241 0.767112 -4.87881 28.1404 4.4053 -5.46324
491 164 2 -6.03299 1.76266 -5.01475 -13.1794 -1.27764 4.97247
135 45 2 -1.32107 1.10928 -3.42002 11.6699 11.3038 -1.72262
473 158 2 -0.762331 5.89783 -3.99208 -1.70811 8.25792 6.48248
307 103 1 -4.84882 0.848585 -7.59163 14.6652 -1.67268 10.2512
308 103 2 -4.92297 0.827422 -6.55679 -5.69968 -0.604999 -15.794
309 103 2 -4.35865 1.71921 -7.84345 -6.39753 -2.91861 5.22196
535 179 1 -3.62269 3.44138 -6.79214 4.93361 3.12537 1.9664
536 179 2 -4.05819 3.59104 -5.86776 -5.43679 -2.78707 -8.76282
537 179 2 -3.7887 4.30445 -7.33416 -0.634833 -5.74462 5.89988
31 11 1 -2.32474 5.18203 -3.30834 9.98517 -22.3358 -6.91786
32 11 2 -1.92514 4.2348 -3.29391 1.46877 9.08626 1.04604
16 6 1 -5.62116 3.82261 -4.91394 -2.14578 3.04772 -10.4536
18 6 2 -6.14467 4.50115 -5.4919 3.12624 -5.69039 7.45172
280 94 1 -1.47231 1.55675 -5.27687 17.9211 -34.5908 -13.6761
282 94 2 -2.09442 2.20851 -5.69747 -19.5015 18.3252 -14.1459
281 94 2 -1.24257 0.808785 -5.96673 -4.67165 17.6329 17.8553
366 122 2 -0.223063 6.20083 -8.16364 -5.44608 5.36165 10.78
17 6 2 -5.54117 4.16723 -3.96429 -2.51509 3.49428 6.69568
472 158 1 0.0871935 6.21646 -4.47166 7.20469 5.1165 -14.9651
534 178 2 1.5885 6.91033 -7.87279 17.3785 5.73308 10.3086
533 178 2 3.18225 6.66338 -7.39939 -2.64979 6.17739 -9.80683
470 157 2 4.83982 0.360129 -6.56751 -1.24968 -16.9236 -7.92012
492 164 2 7.21088 0.53332 -4.82982 -15.7425 8.12371 -1.87483
364 122 1 0.357561 5.78018 -7.42747 -4.078 -8.24304 -13.9195
58 20 1 0.115303 0.975645 -8.63603 -15.8491 -22.4394 -15.7324
276 92 2 5.06335 1.9396 -4.46114 -2.68779 -8.43263 21.0625
602 201 2 2.08372 0.664932 -6.46092 7.74069 -5.74917 15.7941
601 201 1 2.14893 1.67072 -6.68405 -3.37419 -0.70059 -36.6578
603 201 2 1.65039 1.64776 -7.59377 -0.0970872 8.08738 8.82401
384 128 2 2.64554 4.77909 -5.45015 -8.61213 3.27969 5.09456
469 157 1 5.18654 1.14738 -6.03648 2.82579 30 4.18881
544 182 1 4.9214 4.96304 -3.97866 17.0489 61.8183 13.8785
546 182 2 5.13748 4.02008 -4.17027 -3.55775 -47.0271 -0.809922
623 208 2 4.6647 0.220294 -9.0402 8.62261 -13.0059 3.18109
274 92 1 5.09457 2.30507 -3.481 21.9055 21.5695 -22.9886
553 185 1 4.32893 3.03525 -7.72024 -9.10279 -7.97548 -0.465442
555 185 2 3.44983 2.84672 -7.1947 8.1967 -3.20599 -8.91855
610 204 1 0.605594 3.82582 -9.48458 -24.1982 14.8412 13.0444
370 124 1 4.69662 5.68661 -8.14091 1.89216 -12.1135 9.29144
371 124 2 4.66431 4.64433 -8.07287 0.347917 11.1486 0.869726
554 185 2 4.46073 2.27513 -8.41729 -1.13346 9.65975 -0.703077
612 204 2 0.581694 4.33367 -8.57155 5.9922 -9.18057 -15.537
383 128 2 1.6648 5.88774 -4.63221 -8.37319 -11.2555 0.59528
382 128 1 2.63109 5.54884 -4.77589 -5.90075 8.42669 -10.462
120 40 2 6.17627 5.91835 -5.08101 12.6661 1.83107 -15.1336
118 40 1 6.86086 6.25514 -5.79419 -8.76348 25.4672 21.248
59 20 2 0.117118 1.80007 -9.25814 0.399071 -5.88781 6.00743
372 124 2 5.30114 6.04621 -7.39525 2.01903 -2.9438 -6.28685
471 157 2 5.02527 2.00897 -6.61161 4.70728 -16.7578 9.69494
413 138 2 0.0150093 2.75343 -4.95575 -0.498966 -8.1395 0.828217
412 138 1 0.999043 2.75646 -4.68647 23.8447 -2.1806 -10.5115
414 138 2 1.58849 2.30571 -5.46264 -23.7145 14.3657 23.9909
545 182 2 3.90403 5.22965 -4.06022 9.84405 -11.4652 -8.5725
230 77 2 3.25957 0.089267 -4.17902 -2.26592 0.519693 9.69425
258 86 2 -3.848 -4.95917 -2.20493 -1.03494 5.86877 -4.07086
321 107 2 -3.2947 -3.10875 -0.560788 -19.2686 -8.98175 -14.6419
319 107 1 -4.08179 -3.49793 -1.13229 32.6033 8.55472 7.2977
159 53 2 -6.16816 -2.65084 0.794888 4.38257 -15.5096 5.55082
157 53 1 -6.42911 -3.6645 0.728835 -15.1275 32.1737 -4.94136
565 189 1 -4.72217 -5.691 1.06041 37.62 -28.0068 0.948056
566 189 2 -5.34223 -4.9049 0.875396 -16.5865 15.3439 -8.57597
567 189 2 -3.97141 -5.77107 0.33244 -17.3215 4.87814 16.8777
598 200 1 -2.43279 -3.80224 1.57728 -6.59676 -7.08935 10.3039
600 200 2 -3.12543 -4.31359 2.15817 8.14325 19.4176 2.55722
320 107 2 -4.94445 -3.11374 -0.788099 -10.6296 0.102198 7.51514
599 200 2 -2.11654 -4.4961 0.916747 8.90887 -10.6005 -14.8662
577 193 1 -2.08463 -6.23345 -0.0878649 -13.3301 -21.9331 27.9788
47 16 2 -5.64429 -0.723554 0.167667 -1.67709 0.382245 9.23197
46 16 1 -5.70152 -1.12965 1.11519 3.56634 5.38189 -10.3889
299 100 2 -1.00203 -5.63985 -3.08028 -2.41439 12.7107 3.7579
48 16 2 -4.94883 -0.736405 1.69137 -5.20701 -5.12438 -3.35614
576 192 2 -0.747439 -3.22398 -3.17346 21.9107 10.3269 3.09229
578 193 2 -2.10704 -7.19047 0.316919 -15.3745 16.1725 1.51524
579 193 2 -1.42959 -6.53687 -0.808656 14.0808 15.0918 -22.3399
151 51 1 -0.166626 -6.8259 -1.71367 9.13096 16.3744 -2.81583
194 65 2 -7.11814 -3.54798 -2.11731 -15.3112 -14.9345 -0.687415
257 86 2 -4.36148 -6.44654 -1.97 -7.74944 -22.6716 16.4331
256 86 1 -4.14358 -5.8138 -2.69882 8.3233 17.9283 -17.5666
303 101 2 -2.24844 -2.09854 1.29319 -0.000688899 -8.80874 0.764768
301 101 1 -2.3598 -1.21397 0.788429 13.8143 26.2567 10.6207
302 101 2 -1.67972 -0.492112 1.13402 -15.1903 -17.399 -10.6981
648 216 2 -2.99047 -0.222888 -1.73082 -7.06031 14.6254 16.1575
98 33 2 -4.41405 -5.19819 2.79441 2.49468 -4.5525 -22.8924
158 53 2 6.97747 -3.63438 0.751387 8.00651 -16.4183 -0.222803
574 192 1 0.0286574 -2.49687 -3.20216 -1.11673 -32.5975 -20.9966
152 51 2 0.351913 -5.99413 -1.30704 -4.03966 -23.1218 -12.4081
195 65 2 5.7813 -3.78113 -2.68253 -7.81558 1.25795 -2.44255
193 65 1 6.61814 -4.26253 -2.36799 16.5832 22.8549 13.9394
12 4 2 5.77002 -2.91204 2.8452 -34.0495 -27.1905 -28.0178
261 87 2 0.654141 -1.14702 -2.33461 -7.54117 20.9219 0.198141
512 171 2 4.68349 -4.93059 0.87948 -13.6943 2.14575 -8.81172
88 30 1 2.40305 -0.575755 1.3558 -8.86802 42.8358 -47.4383
90 30 2 1.78845 -0.527407 2.13609 -20.5719 -14.5944 34.2517
635 212 2 2.25182 -4.65167 -1.18563 -25.0983 2.30352 -0.0488751
636 212 2 0.697851 -4.00373 -1.59819 11.7957 -3.96502 5.35289
634 212 1 1.22221 -4.65652 -0.98857 15.7578 4.43281 -6.4204
398 133 2 3.86703 -1.29932 0.662452 -6.45063 -1.79278 -3.47656
397 133 1 4.64661 -1.69859 0.118966 7.21605 25.3246 0.479463
399 133 2 5.19722 -0.903854 -0.249423 -8.3152 -18.3371 1.87655
513 171 2 4.77119 -3.14245 0.836607 -6.85158 -1.03844 -21.1648
259 87 1 1.01772 -0.204203 -2.05497 -8.81667 8.09364 5.8808
511 171 1 5.16369 -4.0528 1.12541 27.5274 3.11095 32.1249
506 169 2 1.20345 -4.76051 0.785133 -9.61652 11.5682 -12.5016
505 169 1 1.47444 -4.8977 1.75775 17.7263 -24.7697 -0.0789404
231 77 2 2.49155 -0.0866976 -2.68327 -6.114 5.4926 1.37794
502 168 1 5.90077 -0.928544 -2.73337 -29.7484 -12.4875 2.15115
503 168 2 4.87281 -0.91059 -2.64208 4.92157 14.8788 2.13318
507 169 2 2.1861 -5.64825 1.60437 -7.49548 14.6374 6.81457
604 202 1 3.73719 -6.25623 0.81693 0.562179 -9.87212 9.33716
606 202 2 3.72768 -6.84067 -0.042064 -5.10314 -2.15336 5.22006
605 202 2 4.0226 -6.87624 1.58156 -0.310635 3.34558 -4.93784
588 196 2 3.86809 -6.77952 -1.89041 -5.43218 16.1225 -4.93103
587 196 2 5.08489 -5.78577 -1.89657 3.44153 15.9953 -6.20463
586 196 1 4.10331 -5.7971 -2.17627 -2.30518 -31.3962 8.79793
615 205 2 0.522239 -4.94249 3.09766 14.3773 -0.943565 -2.77137
161 54 2 2.57257 -4.04026 2.77376 6.28813 -0.103229 15.1461
11 4 2 7.2152 -2.12146 2.48445 -23.9159 -8.19172 21.7582
162 54 2 4.18478 -3.86642 2.72196 -14.1897 -3.94472 17.3296
134 45 2 -2.03385 1.30837 -2.04308 5.89713 7.66245 10.6483
133 45 1 -1.15715 1.58424 -2.51343 -17.4049 -14.5768 0.465977
33 11 2 -3.2657 5.07493 -2.92452 -6.87184 8.15884 8.13372
646 216 1 -3.52266 0.548173 -1.26595 22.6018 -21.139 -24.3428
374 125 2 -1.73805 1.55759 1.75099 6.8805 -9.46879 -1.10583
4 2 1 -1.95941 4.42667 2.39372 1.94689 0.70078 -16.4748
6 2 2 -1.13504 4.3025 3.00725 -12.3542 -5.61782 18.9488
562 188 1 -6.51745 0.26302 -1.88201 1.4787 6.54588 3.04654
5 2 2 -2.7966 4.86677 2.81061 11.394 -0.484279 2.27078
183 61 2 -7.20255 7.19065 -3.17025 -10.7304 3.6457 -13.3381
647 216 2 -4.44558 0.472451 -1.66552 -18.1894 6.1618 0.720583
375 125 2 -0.264961 1.83551 0.981068 -2.45312 3.69365 -3.28223
373 125 1 -0.812094 1.14668 1.48842 1.08258 10.8201 -4.84789
296 99 2 -4.07785 5.46744 -1.0001 -17.191 -5.07755 -14.2198
297 99 2 -5.74977 5.37904 -1.43605 7.7047 0.740231 9.08631
295 99 1 -4.78424 5.23451 -1.74565 25.2177 1.21509 4.67481
20 7 2 -5.12449 3.32524 -1.26963 1.45358 -0.129026 -3.80033
564 188 2 -6.51216 1.27463 -1.72575 5.81277 5.92496 2.61283
21 7 2 -6.13748 3.27774 -0.0280809 2.28601 -0.841497 8.33459
19 7 1 -5.91171 2.7941 -0.901783 -6.8704 -1.63681 -3.44086
312 104 2 -0.318131 4.49839 1.60283 15.3102 0.852854 -0.343332
232 78 1 -2.43402 5.46978 -0.0673543 -12.7892 -2.28519 6.51664
233 78 2 -1.49055 5.25051 -0.361972 5.52133 -1.89222 -4.58839
234 78 2 -2.6309 4.97157 0.822151 6.89143 4.24961 -5.17516
125 42 2 -3.51532 0.655991 1.31657 1.0076 14.1615 0.761729
91 31 1 -4.21739 6.00317 2.61224 -4.99143 10.3459 10.9212
93 31 2 -4.50164 6.91403 2.25094 -0.268418 -1.17169 -19.2284
278 93 2 -7.15601 5.94778 -1.18616 1.04671 21.0546 -3.34627
277 93 1 -7.1833 5.66163 -0.201709 -16.3577 -10.296 -12.7995
124 42 1 -3.39362 1.39418 2.03013 -1.28205 -10.6237 5.94528
126 42 2 -4.05167 2.16849 1.98203 -7.64874 3.78705 -12.3511
468 156 2 -6.09091 3.43199 2.46387 9.50929 8.53727 -25.7891
466 156 1 -5.40974 3.71668 1.71143 -1.31216 3.92241 40.3157
467 156 2 -4.92067 4.58444 2.05514 -12.0988 -14.7121 -13.8611
549 183 2 0.234317 2.32269 -1.97324 13.649 12.2684 10.1913
547 183 1 1.17116 2.78391 -1.85796 -28.1832 -20.4105 -31.9036
548 183 2 1.43633 2.74128 -2.86296 6.97335 5.11444 10.8595
275 92 2 4.51263 1.80659 -2.8214 -12.852 -18.1049 -3.38374
531 177 2 5.45493 3.85228 -1.88556 -10.822 0.351406 15.885
260 87 2 0.361004 0.623986 -2.05243 10.8058 -39.0376 -5.85653
563 188 2 6.9859 0.0171566 -2.31652 23.5297 -8.77837 10.7819
137 46 2 6.8251 1.72857 0.255119 -1.20918 -7.05066 1.99616
182 61 2 5.91004 6.00551 -3.11078 -5.88693 0.38464 -15.5264
181 61 1 6.74312 6.42943 -2.693 22.7765 -1.74354 29.2361
89 30 2 1.90997 0.132367 0.742472 26.2371 -33.242 8.27313
136 46 1 5.97931 2.15209 0.637104 0.672735 18.7516 -4.89553
138 46 2 5.29565 1.52719 1.05251 -2.52031 -16.6693 8.77261
229 77 1 3.37501 0.165268 -3.16155 6.54295 -8.17086 -9.50971
501 167 2 1.11437 4.36268 -1.58454 3.37544 -38.2802 -18.0166
500 167 2 1.05634 5.08074 -0.188116 4.32648 6.19921 -2.07918
310 104 1 0.676979 4.60973 1.32741 -25.0044 5.00945 -11.4016
311 104 2 1.30419 4.16939 1.99361 7.19479 -7.6346 9.91545
168 56 2 6.45692 5.27559 2.92161 5.14997 -1.31899 -15.0319
167 56 2 6.52842 6.14399 1.42073 9.93335 -7.46953 2.71479
166 56 1 6.26705 6.1574 2.4191 -15.1942 1.66748 9.85441
589 197 1 6.6057 3.2706 3.15542 2.12917 7.44002 15.6213
591 197 2 6.11973 2.74829 2.41088 -0.255023 1.38841 5.8376
529 177 1 5.13779 4.14753 -0.936804 11.9465 0.518937 -16.8416
530 177 2 5.36661 3.39967 -0.25293 -0.916859 -2.67741 -3.22128
86 29 2 2.6468 5.88655 -1.39029 -18.8069 -3.93465 7.41367
499 167 1 1.21454 5.28166 -1.20009 -21.12 33.526 18.1776
153 51 2 0.438939 6.78461 -1.82244 0.0789279 3.97794 7.51553
279 93 2 6.39952 5.11266 -0.366304 2.02912 -4.66236 16.5547
87 29 2 4.18284 5.46218 -1.06745 -8.9101 10.8594 5.72141
85 29 1 3.52866 6.28707 -1.04989 45.7583 0.24453 -11.0869
330 110 2 4.43434 5.66837 2.92133 -0.210645 7.31666 8.54509
224 75 2 3.63282 0.134575 2.15507 -3.04617 -6.23474 -7.5445
223 75 1 4.44112 0.603116 2.57058 16.1533 1.79032 -21.7888
581 194 2 0.236041 0.557366 2.6375 -13.1649 5.6703 3.80128
51 17 2 -4.22224 -0.848694 6.20753 -1.00017 -1.69634 8.7371
49 17 1 -4.80002 -1.44896 6.81705 7.71061 1.40983 -19.0669
213 71 2 -0.214478 -1.64422 3.89172 2.24091 -2.39174 10.8114
211 71 1 -0.367823 -2.32885 4.66194 14.3811 -16.697 -13.6538
449 150 2 -4.68934 -7.08404 5.15443 -3.71117 -33.5725 8.04582
50 17 2 -5.59512 -0.895138 7.08594 -15.3514 7.78885 8.23726
405 135 2 -3.28169 -4.08631 5.57651 -6.24554 -15.6397 -32.4594
404 135 2 -3.97556 -2.75333 6.31486 1.35448 3.01263 3.41957
403 135 1 -3.1582 -3.39041 6.26895 10.8032 4.90159 25.1885
245 82 2 -5.56941 -4.97534 8.55167 -5.80318 -7.88379 1.5363
244 82 1 -5.4208 -4.31873 7.7842 -28.0696 -10.175 9.83229
246 82 2 -4.52426 -3.94295 7.92916 37.3808 19.6324 3.18178
486 162 2 -6.62279 -4.13979 5.06426 -4.32764 2.36452 3.35612
484 162 1 -6.07804 -4.93881 5.38466 6.43579 -10.1949 -22.4926
485 162 2 -5.61259 -4.71798 6.28975 -13.4254 1.98904 6.84906
42 14 2 -2.45547 -1.47943 6.81863 -2.39984 -2.39827 -0.761692
390 130 2 -6.66581 -2.93019 7.96293 6.10582 -6.68362 -9.3496
97 33 1 -4.05844 -4.65791 3.57411 -12.1504 -12.3232 11.9538
99 33 2 -4.89768 -4.71196 4.16384 3.18176 7.76692 11.6408
528 176 2 -2.53965 -6.98859 7.71984 -18.2964 -11.1195 8.22145
25 9 1 -1.88817 -5.48386 7.49523 31.903 -18.7623 -10.6951
26 9 2 -2.35227 -4.69161 7.03906 5.39037 8.7559 -0.440762
27 9 2 -0.891571 -5.61982 7.16511 -30.7795 13.062 14.9034
613 205 1 -0.0287048 -4.95079 3.96743 -40.7573 -0.163999 -20.9706
495 165 2 -0.0635606 -2.41029 6.36943 -0.254993 -15.2685 12.9627
614 205 2 -1.00318 -4.88482 3.57693 28.3161 -1.40754 21.9565
402 134 2 -7.17749 -6.64205 5.2583 -5.3709 -1.08052 -16.8776
74 25 2 -1.17665 -2.74143 9.02725 -1.63311 18.9347 4.50785
75 25 2 -1.32581 -1.07582 9.25939 1.42826 24.7406 -7.76587
40 14 1 -2.2439 -0.6919 6.20001 16.2056 4.0697 -11.324
41 14 2 -1.86369 -1.12381 5.33594 -1.61344 4.45647 11.6096
205 69 1 -6.06539 -7.04931 8.76671 28.8571 -12.1857 2.54472
206 69 2 -6.56624 -6.72758 9.60861 -17.9989 1.96428 -14.3347
580 194 1 0.499279 -0.164256 3.3253 26.8442 -12.4024 22.2472
388 130 1 7.03849 -2.22787 7.93371 -16.4587 11.8165 10.6636
212 71 2 0.0590608 -3.2482 4.35638 -18.0592 21.6561 11.9155
389 130 2 6.60846 -2.08652 7.00196 2.54355 -3.0086 1.15336
10 4 1 6.51231 -2.40727 3.21327 62.8989 35.082 6.73646
494 165 2 0.375411 -3.68289 7.42643 6.75356 -15.2244 -1.84005
493 165 1 0.220912 -2.67597 7.34261 -20.7077 42.8111 -17.5779
594 198 2 3.94757 -3.69956 6.44044 10.4632 12.0245 9.4697
592 198 1 3.32338 -4.42572 6.14732 -15.4363 -4.45877 -15.8231
160 54 1 3.39416 -3.89024 3.40049 6.79835 -0.781081 -30.224
272 91 2 1.38373 -1.49237 6.53816 -2.25397 -6.74345 7.67223
77 26 2 1.84108 -4.85259 6.88278 -28.0912 -1.33555 25.5302
76 26 1 1.02026 -5.0874 7.53349 45.6993 -7.2418 -21.1297
271 91 1 2.18065 -0.862281 6.56476 16.7702 -7.83297 -0.605757
78 26 2 1.4402 -5.02473 8.49698 -6.45108 -2.818 -9.09939
593 198 2 3.23777 -4.24801 5.12625 0.450751 -5.58211 3.15972
292 98 1 1.89885 -7.0402 5.47395 15.2419 -9.85682 33.965
293 98 2 1.93656 -6.42881 6.31807 -0.804303 -11.1774 -19
294 98 2 1.27378 -6.629 4.81525 -15.3813 16.0356 -18.4432
218 73 2 3.32825 -0.764055 8.25684 13.2489 21.8503 22.2903
411 137 2 5.94144 -1.97957 4.6498 -6.26023 11.5392 21.1272
410 137 2 5.41114 -0.640944 5.49414 -7.57167 18.4511 -3.04846
217 73 1 3.76024 -0.121468 8.98187 -17.3043 -25.2625 -25.1224
409 137 1 5.62851 -1.6084 5.5936 17.4349 -31.5485 -13.7487
150 50 2 5.15878 -7.01169 8.43536 19.092 21.4061 9.44949
395 132 2 5.43467 -3.17621 9.43307 2.74686 2.5015 -1.14946
72 24 2 6.9536 -0.875121 9.13911 8.25399 -8.56341 -7.94401
235 79 1 -0.0884449 3.55988 4.15704 2.31421 20.2416 -20.0128
92 31 2 -4.33261 6.16438 3.61311 1.61003 -11.3372 12.1274
450 150 2 -3.91118 6.4755 6.24407 -2.95614 -13.1234 4.17032
448 150 1 -4.5352 6.356 5.42193 5.91592 47.6396 -15.0966
527 176 2 -3.80073 6.57635 8.59941 19.3244 11.8539 -19.9523
526 176 1 -3.18054 6.61484 7.7594 -4.41473 -0.12221 10.1992
254 85 2 -6.8283 4.43269 5.54849 -24.3151 -1.56536 1.49788
111 37 2 -2.10021 2.69116 6.5177 -0.0852699 8.56657 -0.253371
102 34 2 -5.14075 2.79481 5.13104 13.7495 -34.0092 9.39596
101 34 2 -4.07923 1.85705 4.19242 1.83266 -4.37456 0.888362
238 80 1 -3.79057 3.63664 8.26344 23.5809 12.9858 1.60904
240 80 2 -2.95513 3.28943 8.79052 -19.6646 2.65031 -0.758058
239 80 2 -3.56128 4.54781 7.83782 -2.33787 -8.63471 3.1023
192 64 2 -1.6373 1.92161 9.47818 -19.2083 20.445 26.7465
110 37 2 -1.68627 1.26786 5.96503 1.20136 -8.33315 -7.10431
100 34 1 -4.63135 1.85527 5.04821 -12.7652 23.6134 -6.76665
428 143 2 -5.89649 1.30191 6.26805 15.1467 5.54571 -4.42994
237 79 2 -0.375445 3.27694 5.09492 -3.2401 -5.78507 6.10359
109 37 1 -1.31316 2.20888 6.08847 -5.68132 -6.46282 14.7121
427 143 1 -6.50218 1.04424 7.04698 -21.9591 -5.53904 10.8431
63 21 2 -6.58955 3.06841 8.06601 8.82563 10.2703 19.1169
433 145 1 -1.33551 0.493129 8.70095 30.9909 8.10177 -3.59083
61 21 1 -6.38114 3.56135 8.96177 1.60866 -12.8131 -18.0554
429 143 2 -5.99212 0.964778 7.95123 7.32307 3.34834 -7.17801
253 85 1 -5.94894 3.98138 5.71263 2.75896 9.47879 -10.4386
255 85 2 -5.33101 4.73736 5.41713 14.542 7.14519 8.33177
163 55 1 -0.00686189 5.41957 6.7512 11.8668 25.3724 -20.0795
435 145 2 -1.62983 0.218307 7.75681 -0.679463 -0.602891 -1.57424
207 69 2 -6.63169 6.94976 8.0342 -3.6133 7.7662 13.2939
62 21 2 -5.33745 3.58184 9.01917 -10.5022 -10.7611 -18.9566
313 105 1 -5.13134 0.744598 9.37333 -22.6826 -7.0275 -2.84229
96 32 2 -1.18476 5.77664 9.02975 -1.61169 -3.85412 0.764522
434 145 2 -0.290771 0.597542 8.76896 -22.0669 -1.25047 0.424603
582 194 2 1.02217 0.151037 4.16409 -13.2387 0.946748 -18.9408
496 166 1 2.34101 3.28289 3.26706 25.2601 -1.22734 16.2739
497 166 2 2.92258 4.16485 3.28614 -13.3986 -2.99345 -6.9023
328 110 1 3.52325 5.54174 3.38094 1.43227 3.59701 -2.85019
400 134 1 6.66984 7.01557 4.95878 -5.23836 -5.42176 14.6929
401 134 2 6.43888 6.90046 3.94867 11.2255 9.8117 8.74001
225 75 2 4.17808 0.799113 3.53148 -2.92373 7.33475 18.5429