ITEM: TIMESTEP
38000
ITEM: NUMBER OF ATOMS
648
ITEM: BOX BOUNDS pp pp pp
-7.3008051377494132e+00 7.3008051377494132e+00
-7.3008051377494132e+00 7.3008051377494132e+00
-1.6224011417221103e+01 1.6224011417221103e+01
ITEM: ATOMS id mol type x y z fx fy fz
331 111 1 -4.80175 -0.911368 -11.5646 -7.42744 -13.2366 -11.1212
333 111 2 -5.80906 -0.783297 -11.5845 -1.17676 -0.143822 -3.0535
332 111 2 -4.44713 -0.334359 -10.7965 7.6598 10.1968 9.03146
431 144 2 -1.53954 -0.186564 -13.1367 -24.8953 13.2211 -5.91395
644 215 2 -3.06287 -5.78246 -10.7264 -4.90464 23.8591 4.72571
131 44 2 -4.97151 -5.60559 -13.0906 -2.70055 4.3755 1.23985
130 44 1 -4.96608 -4.58842 -13.182 9.24662 2.62272 -7.01761
345 115 2 -6.75476 -3.18922 -11.8058 34.3722 -15.1193 -41.4807
643 215 1 -3.10725 -4.76264 -10.4924 -6.30062 -13.273 -12.161
645 215 2 -3.03173 -4.19369 -11.3653 5.20537 -13.2941 12.932
132 44 2 -4.25875 -4.3132 -13.8844 -16.1469 -5.85695 11.2111
80 27 2 -5.21838 -2.43348 -10.1439 -14.9631 16.0264 -6.02287
242 81 2 -2.23714 -3.62525 -13.6752 5.12595 0.897272 12.7275
243 81 2 -1.04029 -3.1009 -12.6386 -12.3514 -7.67727 -1.9532
241 81 1 -1.82863 -3.76981 -12.738 0.927067 13.7868 -15.4508
201 67 2 -1.18761 -6.5003 -14.2977 10.8265 -6.64046 0.119537
199 67 1 -1.94174 -6.88425 -13.6929 -31.4385 2.73375 0.63995
609 203 2 -3.20579 -1.55721 -14.6162 9.92518 -11.6034 -6.29549
607 203 1 -2.8826 -2.40264 -15.1299 31.8413 11.3296 3.43407
386 129 2 -5.32674 -0.0323925 -15.4312 -10.1772 -8.4613 0.244469
284 95 2 -0.724443 -4.79079 -11.9258 4.2048 7.25636 -3.91235
226 76 1 -4.00028 -7.06202 -15.3763 29.0532 -12.2826 14.6039
227 76 2 -4.26747 -6.08836 -15.4845 -7.42915 9.18178 -4.95442
228 76 2 -3.17514 -7.10533 -14.7108 -17.6619 4.05222 -11.002
200 67 2 -1.51061 -7.12914 -12.8156 2.66232 -6.61068 9.38902
476 159 2 -0.532488 -0.776667 -10.9724 -1.12688 -4.0293 4.59349
475 159 1 -1.00311 -1.36238 -10.2549 -2.77374 11.1822 -0.0536855
44 15 2 -0.496273 -6.34726 -10.5061 9.26151 6.49951 2.17422
559 187 1 -4.67067 -4.18708 -15.933 -19.5424 -29.2293 -4.47612
608 203 2 -1.85263 -2.30731 -15.3417 -34.5837 -0.0239667 7.63362
637 213 1 -7.04089 -2.568 -14.5037 29.0588 26.3758 9.47361
639 213 2 -6.27668 -3.20707 -14.3219 4.90646 -17.3418 4.86653
638 213 2 -6.5685 -1.65049 -14.2853 -23.743 -10.7327 -8.94466
560 187 2 -4.03483 -3.45507 -15.6306 17.7922 19.2608 -8.49343
627 209 2 6.55311 -5.57294 -11.5113 -3.36308 -6.19225 5.11163
369 123 2 6.67055 -3.89702 -14.9273 2.06517 5.64568 2.46505
479 160 2 0.593343 -3.02466 -15.5973 -1.80262 2.97581 0.437141
175 59 1 6.89122 -7.28262 -13.6877 26.3049 -38.3114 -13.7797
343 115 1 7.28481 -2.76408 -11.1416 -32.6502 -5.3922 39.7847
344 115 2 6.91113 -3.58998 -10.6337 1.2051 17.6143 0.578425
625 209 1 6.46523 -5.62263 -10.4942 30.607 5.28753 -11.0661
368 123 2 6.18739 -5.36628 -14.3629 3.16334 -18.2637 13.4885
14 5 2 2.37926 -5.48137 -13.687 14.0852 -16.9557 2.89684
13 5 1 2.14342 -4.49368 -13.5533 -31.5407 18.8868 -0.129931
334 112 1 2.24699 -0.29967 -13.9128 -6.23306 -10.1489 -8.99333
15 5 2 2.87868 -3.87168 -13.8772 18.5473 2.20801 3.63588
367 123 1 6.11517 -4.73825 -15.14 -9.94195 14.7158 -19.5484
557 186 2 4.71716 -1.29977 -13.1816 -0.466415 27.8684 10.1364
263 88 2 0.867348 -1.64324 -13.926 3.94218 -6.07115 5.71356
262 88 1 0.413724 -2.55178 -14.1066 0.102023 -7.14157 4.53955
264 88 2 1.01089 -3.37363 -13.8211 -3.58663 18.5071 -0.270905
2 1 2 3.79881 -1.97553 -14.717 3.03333 -3.68976 1.50741
362 121 2 0.470769 -5.59852 -15.5701 -8.6657 -8.13494 11.3801
363 121 2 0.579799 -7.24279 -15.4623 -11.6244 9.98456 13.5693
361 121 1 0.0564256 -6.42166 -15.1 38.0817 6.71844 -39.8512
1 1 1 4.2415 -2.72844 -14.181 -14.792 12.8794 -5.19299
3 1 2 4.65546 -3.3951 -14.8238 11.283 -8.05823 -1.69006
220 74 1 3.04492 -6.98112 -13.6531 -4.61366 -34.6027 -15.127
532 178 1 3.60741 -6.09387 -10.2184 39.3677 -0.355848 7.4379
534 178 2 2.61355 -6.01731 -10.1982 -24.2813 -4.8726 -1.91859
358 120 1 6.39796 -0.300848 -10.6376 6.50323 -7.51181 1.06297
626 209 2 5.50648 -5.62312 -10.207 -27.0212 -0.421723 3.41216
336 112 2 3.2263 -0.0315972 -13.746 -1.50539 3.20075 16.1889
335 112 2 2.19202 -0.441617 -14.9225 -0.337998 5.1201 -7.54447
556 186 1 4.79242 -0.299845 -12.8444 23.5883 -45.7086 2.8765
558 186 2 5.44931 -0.364462 -12.0206 -16.8444 10.9968 -13.8925
359 120 2 6.82015 -1.25539 -10.8043 -12.8897 13.1902 9.31598
285 95 2 0.901013 -4.7229 -12.2871 21.2304 3.11929 -15.4099
283 95 1 0.230661 -4.98643 -11.5861 -23.9351 -19.4244 24.9559
533 178 2 3.97436 -7.04816 -10.0688 -12.8733 2.99987 0.164718
348 116 2 6.32235 -0.142715 -15.1428 -0.0763549 8.18623 -13.5288
430 144 1 -2.41036 0.0629138 -13.6764 39.5478 -23.033 -11.4813
176 59 2 -6.82602 6.69455 -13.6367 -29.6212 38.1661 15.121
372 124 2 -7.12788 1.66873 -11.1026 -10.0645 -20.6615 -7.63186
387 129 2 -6.20495 1.02445 -14.6075 -12.0104 -6.43608 9.47502
385 129 1 -6.03217 0.0139503 -14.6706 16.0365 10.2916 -7.85286
432 144 2 -3.21193 0.258416 -13.125 -20.3589 3.24459 30.1563
145 49 1 -2.39215 4.19857 -13.03 -0.321723 12.6289 17.4701
146 49 2 -2.00436 4.83807 -12.2881 -2.75752 -11.4498 -19.9503
147 49 2 -3.39552 4.08583 -12.85 3.06247 -4.46877 -4.01075
621 207 2 -4.64379 6.28075 -14.0768 -8.90621 -0.633065 0.300403
318 106 2 -4.2584 6.82285 -12.0989 11.3407 2.32225 17.1368
617 206 2 -2.286 6.17723 -11.0879 19.016 -6.14936 -7.50671
585 195 2 -1.08218 3.28376 -14.3107 8.04012 11.8282 10.4674
583 195 1 -0.372649 2.74331 -14.8109 -37.1658 -18.9187 -7.61987
584 195 2 -1.00066 1.96476 -15.1277 21.7147 10.3403 -0.41372
316 106 1 -3.60275 6.90532 -11.287 -25.6058 -6.20414 -7.19005
179 60 2 -4.89381 1.46681 -10.0377 0.271064 0.15006 2.20878
616 206 1 -1.29732 5.79325 -11.1265 -41.0495 -37.3339 -30.7381
618 206 2 -0.852516 6.41934 -10.4753 18.5536 20.7845 18.2214
29 10 2 -6.05246 2.99435 -13.4102 8.16773 20.9955 6.36351
516 172 2 -0.914091 3.5376 -11.4931 -11.0316 8.29161 -1.67132
28 10 1 -5.46791 3.64635 -12.8341 -7.56499 -20.1268 -8.83772
30 10 2 -5.71558 3.33839 -11.881 2.20538 -2.45557 3.90676
370 124 1 -6.41278 2.27373 -10.7457 -3.10396 18.5905 18.0641
317 106 2 -4.00338 6.3218 -10.5051 2.106 9.56105 -3.21804
371 124 2 -6.96824 2.95259 -10.1715 13.987 0.199156 -5.4972
620 207 2 -5.44248 5.28319 -12.9289 0.749464 -14.9955 -7.74596
619 207 1 -5.39631 6.21167 -13.3733 12.647 14.4779 3.53215
514 172 1 -0.0795255 2.97806 -11.5381 -11.0577 -17.0102 13.9337
355 119 1 -2.17682 1.00138 -16.0617 24.3207 -8.36848 -8.87942
357 119 2 -2.4721 0.523676 -15.1939 2.50341 2.45661 9.36186
455 152 2 1.06818 0.114168 -12.7823 -6.00822 -3.29308 3.14736
221 74 2 2.64001 6.74724 -14.0608 -1.19392 17.8987 2.67121
222 74 2 3.85132 7.23598 -13.1696 2.8507 6.96792 8.25787
177 59 2 6.6709 7.14418 -14.6748 -11.2293 8.90339 -3.55007
396 132 2 0.73532 2.38853 -15.905 2.59763 -1.23905 9.95999
265 89 1 7.05812 2.46261 -14.3432 -7.13389 -10.3311 16.5109
456 152 2 0.0848244 1.24807 -12.1081 -0.903608 -5.08106 2.94781
267 89 2 6.04578 2.36657 -14.1677 14.0415 1.29863 4.56053
454 152 1 0.183424 0.222932 -12.2427 -0.0349557 10.4381 -3.20649
419 140 2 5.08742 5.63785 -10.4296 -23.1642 -4.55362 10.6057
523 175 1 2.3574 3.39756 -12.3952 5.95157 15.1515 -2.42143
525 175 2 2.87663 3.1634 -11.5196 -11.0884 -2.61608 -5.81447
174 58 2 4.62337 1.28895 -14.1966 -9.34249 -0.041116 7.2503
524 175 2 2.74858 2.77662 -13.1178 6.57375 -0.39498 0.403683
509 170 2 5.66273 6.29026 -12.808 -11.9101 -23.5392 9.13631
510 170 2 4.73294 4.80298 -12.899 2.91186 5.21417 -0.413312
508 170 1 5.0271 5.59806 -12.3271 14.4672 23.2893 -7.29685
515 172 2 0.664102 3.51938 -11.9761 14.6101 -4.45 -7.93451
142 48 1 1.95033 5.21422 -14.8795 -2.4865 8.13767 -21.4318
144 48 2 1.42506 4.84707 -15.6921 6.1307 13.6626 -1.62651
143 48 2 1.61249 4.62919 -14.1471 -0.525456 -13.2857 26.9487
172 58 1 3.92662 2.03685 -14.0616 12.9006 2.93117 -18.123
384 128 2 1.41705 4.37772 -10.3639 3.91355 0.562534 4.6204
553 185 1 3.23619 2.29216 -10.2002 35.1001 -27.7869 15.8592
173 58 2 3.42142 2.16856 -14.9374 -2.03957 0.349249 -0.163657
555 185 2 3.67224 1.37001 -10.3942 -14.7056 11.0313 -5.95978
346 116 1 5.83624 0.335043 -15.9222 10.0076 3.01686 -7.13281
266 89 2 7.0959 2.92041 -15.2467 -0.202557 14.9196 -15.3969
81 27 2 -4.21611 -3.43458 -9.54479 -16.2596 3.45204 11.6526
79 27 1 -5.02943 -2.84854 -9.24167 47.2847 -22.4765 -12.5793
45 15 2 -0.094525 -6.49713 -8.86633 0.683043 -0.443489 -5.47915
38 13 2 -0.763699 -4.59379 -9.39381 -2.74735 17.7324 -6.09313
39 13 2 -0.706922 -2.88193 -9.50905 0.487542 23.44 -28.7415
194 65 2 -7.05286 -3.29003 -4.35364 12.1189 -0.650562 0.801643
193 65 1 -6.22754 -3.86677 -4.15377 -23.6001 -17.7567 6.16565
195 65 2 -5.31662 -3.45062 -4.37486 4.95862 15.9824 -2.32163
492 164 2 -5.9351 -3.62023 -8.18467 10.8489 14.3798 -22.1283
490 164 1 -6.35526 -4.12778 -7.41153 -23.8804 -14.2509 23.4507
491 164 2 -5.64957 -4.37341 -6.74797 18.1685 -8.23691 10.7444
158 53 2 -6.2857 -5.33364 -3.24787 5.36703 -3.51962 3.73854
349 117 1 -1.8716 -6.4855 -5.6036 7.9782 17.8038 -9.71963
351 117 2 -2.60267 -6.06318 -6.19241 2.73005 -8.97392 3.36988
350 117 2 -1.47106 -7.24867 -6.16963 -6.10311 -4.7134 -2.30332
37 13 1 -0.712943 -3.6864 -8.91024 -1.87099 -32.784 39.3626
135 45 2 -3.46033 -2.44435 -7.85207 -15.0153 3.41237 -7.05493
134 45 2 -1.87733 -2.70038 -7.73712 -2.45793 -0.648929 4.91889
304 102 1 -4.11164 -2.44719 -4.74853 -40.8999 -4.22166 11.7637
477 159 2 -1.60232 -0.784968 -9.65573 4.71339 -3.47478 -9.03949
471 157 2 -5.47668 -1.09456 -4.68397 7.59423 -7.90263 -0.952481
469 157 1 -5.91334 -0.181174 -4.79168 -11.0547 1.01533 -1.13198
470 157 2 -6.93452 -0.269016 -4.70393 -2.43011 -3.58511 -5.95163
133 45 1 -2.68652 -2.31664 -7.2171 19.4644 -3.77161 -2.34652
342 114 2 -0.529927 -5.50909 -4.99493 16.8298 9.58424 9.58011
353 118 2 -7.20315 -6.8626 -9.14881 -6.56954 23.3259 -27.2864
60 20 2 -0.884906 -2.49051 -5.85479 -15.1441 3.32078 -8.84537
57 19 2 -4.2431 -5.77795 -8.06659 6.43443 -4.24563 1.64067
55 19 1 -4.40923 -6.25662 -7.18134 -22.5821 3.70504 -3.00401
56 19 2 -5.3409 -6.70273 -7.31423 16.4177 -0.183266 3.56296
258 86 2 -1.61694 -0.408409 -6.52241 -7.70937 -25.8456 -16.501
54 18 2 -5.03728 -7.22503 -3.84436 -8.03308 -2.32177 13.0749
53 18 2 -4.24517 -6.77195 -5.13328 8.11684 -1.11137 -16.2408
43 15 1 -0.597139 -6.93219 -9.66737 14.6703 17.5193 20.6713
299 100 2 -2.66916 -6.83519 -3.5862 1.79311 5.03885 12.2587
306 102 2 -3.33409 -2.54363 -4.10787 21.769 8.32237 1.66446
341 114 2 -0.552729 -5.05204 -3.48314 14.245 10.2507 -4.74346
305 102 2 -3.9284 -2.29778 -5.7285 26.5191 2.84337 -15.066
375 125 2 -0.77387 -0.319626 -3.59528 1.88819 -16.2462 0.616838
623 208 2 3.33984 -0.514128 -8.11269 -46.9482 -16.4422 21.0541
360 120 2 5.94836 -0.24838 -9.70472 2.73447 -7.83218 -10.0967
381 127 2 7.10116 -5.00064 -6.51153 -15.4463 -6.53396 -6.94728
159 53 2 7.19169 -6.38803 -3.5476 3.29076 -10.2922 11.9038
59 20 2 0.198562 -3.1461 -4.88552 7.02047 10.8766 -16.0629
8 3 2 7.21575 -2.9039 -6.8824 4.70911 -7.47253 -12.4458
9 3 2 5.78663 -2.67296 -7.67182 -12.695 -6.78285 -11.6688
7 3 1 6.46658 -2.23829 -7.0724 -1.53406 20.958 24.8577
340 114 1 0.0621224 -4.9705 -4.30928 -30.5856 -16.0587 -5.64476
116 39 2 3.96665 -4.88926 -8.87876 9.85562 10.9097 21.3614
622 208 1 4.19038 -0.263982 -8.52363 54.7165 61.9833 -17.6952
458 153 2 1.20704 -1.25496 -6.57863 5.78782 25.5259 -33.7119
82 28 1 0.919695 -5.54693 -7.74375 -18.9837 4.12414 -37.0197
380 127 2 5.41288 -5.41757 -6.59749 22.0051 3.41491 -1.01135
379 127 1 6.32152 -5.56682 -6.11488 -2.89333 6.77209 -0.194405
117 39 2 3.75702 -4.42266 -7.23513 0.444782 -3.63248 -8.56911
115 39 1 4.39202 -4.41289 -8.04265 -12.7725 -10.9329 -7.67432
58 20 1 0.0945701 -2.4431 -5.65019 9.74506 -14.5587 19.3561
538 180 1 3.10372 -5.01653 -5.22007 23.8093 -1.89661 -43.3456
540 180 2 2.28041 -4.80016 -4.69511 -11.9815 2.98331 22.6303
539 180 2 4.02979 -4.98672 -4.78716 -12.1851 1.80765 10.4075
500 167 2 2.77756 -0.977661 -6.01082 0.456172 12.513 -2.20262
183 61 2 6.17836 -6.76517 -4.83814 -8.28776 15.4887 -12.9954
457 153 1 1.68464 -0.627097 -7.30323 -10.3936 -39.6598 40.456
413 138 2 4.8425 -0.741373 -4.50565 9.42281 -8.83006 -23.3249
499 167 1 3.45937 -1.64655 -5.6593 -5.76854 -10.365 6.96143
501 167 2 3.3084 -2.41588 -6.29679 7.87858 -7.06174 1.71701
84 28 2 0.513221 -4.60975 -7.93023 3.35115 -7.49371 3.304
83 28 2 1.33113 -5.60256 -6.84893 15.2834 0.421307 32.5109
412 138 1 5.85297 -0.835525 -4.73849 16.1897 6.0665 19.3329
414 138 2 6.02217 -1.34403 -5.6372 -14.636 6.83494 3.71762
182 61 2 4.99344 -6.85143 -3.59694 -1.26987 23.9251 17.8325
178 60 1 -4.14873 0.831968 -9.71208 -4.14108 -1.08504 -30.229
352 118 1 -7.1198 7.13213 -8.3703 -3.79034 -17.3341 30.4737
180 60 2 -4.00655 0.9561 -8.73829 2.47614 6.32777 35.5623
123 41 2 -4.55066 4.74241 -8.62819 3.40646 -9.04145 16.3089
364 122 1 -1.66802 6.23623 -7.56117 10.1118 3.47719 5.49643
365 122 2 -1.23193 6.42701 -8.45838 0.627159 12.0747 -4.51492
307 103 1 -4.08182 1.10024 -6.64273 21.2773 10.1082 -1.22438
308 103 2 -4.8497 0.585871 -6.22422 -5.5117 -7.15032 11.9645
309 103 2 -3.14327 0.914718 -6.20829 -18.9505 0.135729 -12.8531
366 122 2 -2.06961 5.32547 -7.61865 -11.1536 -16.6154 1.2338
535 179 1 -4.0924 3.87658 -7.03343 -2.6268 -21.732 -3.51104
536 179 2 -4.10139 2.91963 -6.61191 -1.83244 14.5571 -14.7392
537 179 2 -3.59389 4.51253 -6.43502 3.66474 7.6761 13.2432
122 41 2 -5.64943 5.69645 -9.39979 -0.924768 -0.256001 7.82466
121 41 1 -4.65308 5.47083 -9.32631 -5.29564 8.04411 -20.4449
296 99 2 -3.31211 4.02065 -3.98485 -16.8839 -3.92091 6.85164
297 99 2 -3.25683 5.66162 -4.4124 -2.95056 -5.1689 2.17557
295 99 1 -2.75316 4.75256 -4.39555 -0.361913 14.6721 -11.0097
257 86 2 -0.986826 0.435082 -5.33021 0.264314 10.1188 -18.3991
256 86 1 -1.46288 0.537289 -6.26166 14.5598 14.4969 36.1073
438 146 2 -1.29958 4.80424 -4.68807 18.9388 -5.36076 -3.93471
436 146 1 -0.236775 4.80943 -4.69916 7.41215 -11.9833 -7.68701
52 18 1 -4.20933 7.14611 -4.38681 -8.52652 -4.19235 6.04693
153 51 2 -0.139627 5.8958 -3.47117 14.0296 15.3066 -2.75789
17 6 2 -5.03906 1.95575 -3.26602 0.956205 -6.59327 25.2299
646 216 1 -5.40353 3.88111 -3.52424 -6.98311 -20.626 -23.2974
474 158 2 -0.501244 2.1807 -6.54212 1.20408 3.83919 15.3981
648 216 2 -6.28316 3.561 -3.95947 7.38034 0.238901 7.21229
18 6 2 -5.57471 0.478195 -3.33742 2.63929 -7.02331 -3.93913
373 125 1 -0.00549235 0.268989 -3.92563 -25.1686 20.6814 14.6822
374 125 2 -0.202433 1.16813 -3.41285 20.6914 -9.072 -14.7694
383 128 2 1.17879 5.59547 -9.28631 -23.5969 24.8711 13.6516
420 140 2 3.77729 5.09522 -9.4012 -9.87673 1.02342 -8.66208
418 140 1 4.62652 5.65731 -9.48684 25.3217 11.0173 -11.0537
382 128 1 1.82824 4.94071 -9.61521 23.1144 -24.8837 -15.9448
354 118 2 6.5723 7.0745 -7.88883 14.2977 -0.695174 -5.86258
624 208 2 4.38861 0.737701 -8.23369 -3.03554 -38.0228 -3.4735
459 153 2 1.0799 0.0940612 -7.67755 -6.23609 10.3986 -6.30503
86 29 2 5.82578 2.94199 -3.38522 8.93952 -7.17185 -7.55
120 40 2 6.07977 5.44598 -5.62761 -4.91745 21.85 2.57114
181 61 1 5.4927 7.2776 -4.3291 7.98518 -59.2613 -15.4061
68 23 2 7.09255 3.74587 -8.44193 2.38265 1.33827 16.0608
611 204 2 0.17212 1.57561 -9.35071 -2.47207 2.1363 -7.79556
118 40 1 6.43687 4.6518 -6.11921 0.968585 -31.8584 12.2329
554 185 2 3.86102 2.6272 -9.4546 -9.86301 7.96086 -0.248844
437 146 2 0.185705 4.22289 -5.45969 -17.4353 6.87894 12.0959
549 183 2 5.26037 3.24256 -7.23952 2.18738 5.66063 5.97166
69 23 2 6.1397 4.85557 -9.22584 -1.02826 1.73367 2.42922
67 23 1 6.90889 4.18089 -9.33105 2.28194 -6.36334 -13.2081
612 204 2 1.83247 1.80321 -9.42104 -18.6061 -0.507389 15.661
610 204 1 1.01014 1.61463 -8.78313 16.8724 3.94037 -13.0664
87 29 2 6.32795 1.68147 -4.41449 -0.129701 8.92735 3.87355
85 29 1 6.54766 2.61913 -4.04796 -8.09791 2.596 -0.039495
547 183 1 4.71307 2.41809 -7.46623 -8.87009 -6.75355 -15.0494
119 40 2 6.61567 3.93693 -5.38701 -0.214574 5.07655 -15.0368
198 66 2 2.91849 1.62627 -4.92076 -14.7999 2.44788 -2.18744
196 66 1 2.78263 2.26269 -5.72405 11.8889 2.73949 1.27962
197 66 2 1.79226 2.41734 -6.03769 7.9094 -5.24452 18.1274
548 183 2 3.86034 2.37631 -6.85544 9.95883 0.716723 1.56748
473 158 2 0.759778 2.47346 -7.35759 12.5426 1.4803 -17.3862
472 158 1 0.351983 2.75623 -6.46661 -24.3692 -5.02157 -3.46515
287 96 2 4.48894 5.65785 -3.92554 -1.90821 8.96994 5.59312
288 96 2 3.61072 4.39171 -4.41678 -10.1629 -7.62498 -7.83253
286 96 1 3.82229 4.95079 -3.60443 12.3332 -4.06648 2.10611
280 94 1 2.76189 0.548252 -3.30254 16.2106 -3.84945 8.6277
282 94 2 1.94235 0.0358115 -3.61043 -15.0629 1.78915 -8.43768
20 7 2 0.162814 3.61414 -3.28973 -18.4582 -17.658 -2.26873
157 53 1 -6.54443 -6.30859 -3.00333 -7.70483 14.2622 -17.8769
300 100 2 -2.69188 -6.71665 -1.88347 1.9058 -12.3938 -9.19443
298 100 1 -2.24232 -6.37157 -2.75297 1.48702 9.35242 -10.014
259 87 1 -0.694329 -0.0451767 0.578905 -5.6375 -15.9886 13.2541
4 2 1 -2.45322 -2.09207 1.05341 -35.9673 -5.4012 -13.007
6 2 2 -2.42058 -1.63679 1.97107 0.546717 -5.54858 5.73974
5 2 2 -3.45472 -2.23125 0.770562 24.0241 6.43416 8.00287
576 192 2 -1.44526 -4.20439 -1.1416 6.00514 -0.375232 4.33322
138 46 2 -6.42205 -4.91423 0.29714 6.29605 9.15485 -5.45563
574 192 1 -1.57442 -3.93731 -2.12179 1.42 -11.7583 -2.74077
603 201 2 -1.49213 -2.32888 -2.65093 0.997273 -20.2136 5.09843
601 201 1 -2.01665 -1.51093 -2.94894 -0.764595 29.4687 -3.76015
602 201 2 -2.31719 -0.998941 -2.08812 -2.66659 -0.500044 -15.3328
565 189 1 -1.01194 -4.43404 0.461891 20.0244 -29.3659 -13.1251
566 189 2 -1.75969 -3.75885 0.392891 -9.81347 22.6545 21.876
575 192 2 -1.99954 -4.79019 -2.54093 -0.144309 2.33918 3.05848
137 46 2 -5.77757 -3.3217 0.687436 8.79008 10.0546 -18.8489
136 46 1 -6.20578 -4.18512 0.986446 -17.4701 -21.6896 23.7002
567 189 2 -0.338136 -4.28801 1.24475 -18.5815 16.8502 0.36122
504 168 2 -6.147 -1.5143 -0.397798 29.156 -0.755521 -0.632363
502 168 1 -5.15077 -1.76703 -0.213024 -29.5999 -13.4746 11.7644
503 168 2 -4.4617 -1.21679 -0.708776 3.5812 13.7985 -9.08048
152 51 2 -0.381762 -7.04773 -3.11502 7.22807 -24.5422 3.20033
260 87 2 -1.68463 -0.392242 0.551766 22.312 7.41101 -4.79361
209 70 2 -7.22477 -6.52778 -1.394 1.87395 1.58357 -18.1256
513 171 2 -6.7346 -4.46795 2.65266 12.6211 3.80251 -4.12231
494 165 2 -0.246266 -2.51878 2.90039 5.26443 -17.5478 -10.1348
88 30 1 4.94601 -5.66177 -2.37175 -29.295 -3.25494 -16.0911
89 30 2 3.92692 -5.78723 -2.60915 9.63237 -4.11006 5.02553
90 30 2 4.90333 -5.02296 -1.5779 13.3889 8.74603 13.3043
303 101 2 0.01949 -1.23161 -0.512758 10.1174 -1.39091 -3.18391
302 101 2 0.280591 -2.79326 -0.767557 -9.6663 -30.6927 1.55656
98 33 2 0.874576 -6.87684 2.15734 4.46109 -2.52664 6.46576
97 33 1 1.30969 -7.18501 3.0394 -17.8324 6.72149 -14.2279
301 101 1 0.665496 -1.90481 -0.96641 1.69661 29.9956 7.52512
498 166 2 6.73862 -0.236726 1.7006 3.00868 2.60633 1.35177
276 92 2 2.28406 -1.54525 -0.719118 -16.6727 1.71655 -9.32969
275 92 2 3.30484 -0.453708 0.121682 -1.24353 -11.5034 -12.8944
274 92 1 3.25227 -1.27807 -0.520998 19.7057 17.9738 14.4604
614 205 2 3.74872 -3.74451 0.88313 16.2753 -13.8567 -0.938936
605 202 2 4.83234 -1.73254 2.16008 -12.9622 5.06509 -2.90701
604 202 1 5.7638 -2.07983 1.97667 4.00996 1.76872 3.67899
606 202 2 6.16307 -2.12968 2.90787 8.40183 -5.09919 -1.34191
615 205 2 2.71816 -2.58468 0.658692 -2.36286 11.4278 -8.9787
613 205 1 2.78682 -3.51226 1.04768 -12.7428 -3.69305 6.0742
635 212 2 1.83125 -5.32578 -2.43342 -9.83193 3.31783 2.28827
599 200 2 1.77688 -5.2832 0.228942 7.42731 15.8045 3.9607
598 200 1 1.09805 -6.0168 0.111001 -32.4866 -17.9026 7.93717
268 90 1 5.80996 -1.77008 -1.95696 13.0069 0.720893 -21.4555
600 200 2 0.0925846 -5.70745 0.194806 28.8657 2.04755 -5.97996
270 90 2 4.9516 -1.60326 -1.43468 -11.2564 3.49464 0.293395
210 70 2 6.28859 -6.31619 -0.0612175 17.1356 -13.6012 -19.9043
47 16 2 5.79055 -3.55498 0.529915 1.73931 -1.12648 -10.0157
48 16 2 5.94698 -3.52332 -1.16071 -8.04891 -1.84931 19.0802
46 16 1 5.55174 -4.04944 -0.347259 5.30249 13.9061 0.695491
636 212 2 1.78239 -6.89224 -2.99047 -2.0351 0.0997257 5.15174
634 212 1 2.39005 -6.14679 -2.60725 9.38982 -4.96936 -7.1743
269 90 2 5.76113 -1.46773 -2.95486 -1.50814 -3.99152 19.6564
398 133 2 4.77952 -6.943 -1.15077 2.36365 7.13098 -17.9556
208 70 1 7.19667 -6.70834 -0.412223 -4.32033 16.9287 41.0861
495 165 2 1.27627 -3.03538 2.39976 1.30315 -5.91237 -4.80579
493 165 1 0.304633 -3.3297 2.54507 -1.47812 20.4755 11.937
647 216 2 -5.56406 4.80451 -3.15333 0.842479 8.77893 12.2942
261 87 2 -0.481345 0.670823 -0.109653 -5.74091 12.3828 -7.91861
593 198 2 -4.28418 1.5351 3.18848 -26.9114 -14.761 -0.574676
594 198 2 -5.83915 0.87866 2.85452 -3.87295 6.51877 -2.3191
496 166 1 -7.24208 0.553871 1.90458 -4.17111 -21.3071 6.26174
497 166 2 -7.16045 1.14164 1.08358 3.98294 10.5304 -12.7446
32 11 2 -2.74969 1.14087 -0.913865 5.84599 -12.2613 2.82989
12 4 2 -5.89337 5.41904 -0.124386 -5.84929 16.6134 13.2403
10 4 1 -5.50894 4.8186 -0.835671 11.1311 6.26199 -5.92922
31 11 1 -3.07828 0.214221 -1.26806 -2.66393 7.09476 10.9079
33 11 2 -3.85911 0.514828 -1.8754 -8.32277 -1.79139 -4.55966
16 6 1 -5.11563 1.10409 -2.66347 -4.06051 23.5666 -15.6147
278 93 2 -4.04356 5.99664 -1.02797 -21.0345 -5.64429 1.06847
277 93 1 -3.11831 6.40218 -1.05703 22.1694 -16.1064 0.107066
279 93 2 -2.48919 5.62585 -1.33086 -8.4472 18.6178 4.03975
168 56 2 -2.82604 4.4938 1.89451 -8.29158 8.03472 3.20709
167 56 2 -2.55884 5.79682 0.762766 -4.64059 -9.25376 5.93269
166 56 1 -2.28255 4.87318 1.13245 14.0195 -2.88537 -10.2581
531 177 2 -6.64204 1.4932 -1.24291 8.14045 8.84025 2.94858
564 188 2 -1.71598 3.28264 -0.140305 3.57121 43.209 24.7128
19 7 1 -0.0199002 2.72082 -2.77832 7.42937 32.0015 -8.26249
529 177 1 -7.0192 2.04002 -0.459166 0.660475 -14.0333 -2.86949
563 188 2 -1.45933 2.42889 -1.45222 10.4993 0.299681 -8.5283
562 188 1 -1.8486 2.38513 -0.511048 -8.67233 -30.8814 -13.8593
11 4 2 -5.63271 3.87263 -0.51381 -3.12723 -15.4704 -2.61656
507 169 2 -6.82902 7.05404 0.979929 9.50573 -6.4769 -18.5406
505 169 1 -6.16175 6.44546 1.48799 -18.327 9.46164 19.7998
588 196 2 -7.23385 4.76873 1.62139 4.48102 9.27336 -12.3522
506 169 2 -6.18624 6.87363 2.41841 9.67676 -10.455 -5.89841
468 156 2 -2.57093 2.12039 3.24034 -0.396964 -2.19522 -6.29617
466 156 1 -2.95933 1.48144 2.52539 30.7339 23.8331 -10.1081
467 156 2 -2.54546 1.74853 1.61 -8.41468 -8.40356 12.4814
231 77 2 4.31123 2.92721 -0.973236 -8.39518 10.5763 2.09053
99 33 2 2.28342 7.21137 2.79748 10.7756 -7.70094 4.5434
281 94 2 2.91449 0.225713 -2.34436 -0.077151 6.15627 -4.84722
460 154 1 3.49164 0.863925 1.21095 -7.7543 -6.82497 -8.63164
461 154 2 3.19195 0.244093 1.93696 -8.15691 -26.3048 16.5941
213 71 2 0.441277 0.0257397 1.91977 -6.36986 4.95773 5.77094
151 51 1 0.252333 6.73699 -2.98459 -14.9348 15.3616 2.58585
397 133 1 4.62641 7.28312 -0.227907 -20.0077 -13.0105 30.2796
399 133 2 3.9424 6.52586 -0.260704 -0.284802 0.791515 -3.88595
462 154 2 3.68642 1.63826 1.83393 13.0837 24.7686 0.213367
312 104 2 1.51255 6.56773 -0.829302 -2.50682 -5.21995 13.3363
311 104 2 1.63456 5.95921 0.784937 -0.854465 3.16093 -12.0898
310 104 1 1.74709 5.76279 -0.216728 -0.982063 15.7186 6.20089
329 110 2 5.42843 3.2167 2.60459 -10.0175 -4.26958 9.50038
21 7 2 0.861157 2.67711 -2.26474 -0.929973 -16.3124 10.476
229 77 1 4.93558 2.30058 -0.464757 10.6197 -14.8521 -12.9676
230 77 2 4.33863 1.51615 -0.157135 4.9281 7.58356 9.87311
544 182 1 1.47755 1.60919 -0.645075 -3.23062 -12.3516 12.3586
530 177 2 6.55372 1.991 -0.554744 -6.69351 10.3577 1.25474
328 110 1 4.78071 2.59098 3.12286 13.8223 -2.4429 -18.5587
545 182 2 1.71557 1.13613 0.236897 3.05796 10.3826 -9.46782
546 182 2 2.08414 2.43683 -0.79172 -0.91735 1.50149 -0.464973
320 107 2 2.38104 4.59047 -0.818067 -1.6328 1.73517 -3.51456
321 107 2 3.22087 4.11774 -2.23056 -11.4528 3.75275 16.3732
319 107 1 2.82445 3.7799 -1.31529 20.7372 -12.0448 -28.1305
587 196 2 7.05464 3.17948 0.977177 5.63815 7.86892 -9.40183
586 196 1 7.15641 3.79289 1.7888 -7.97522 -12.9487 25.8625
235 79 1 3.88099 6.45254 2.43772 -34.7656 -8.7887 -18.2087
236 79 2 4.24754 6.94204 1.62167 13.2485 5.2274 2.07788
211 71 1 1.07049 0.0783262 2.74099 10.078 -17.7953 -8.13784
404 135 2 -2.10695 -2.75362 4.27356 10.1303 19.1765 7.82759
125 42 2 -5.83332 -6.08048 5.48917 -11.6523 14.0489 21.4971
124 42 1 -6.07686 -6.25127 6.48561 11.7951 -8.27313 -52.1407
403 135 1 -1.85822 -1.81761 3.90424 3.0392 -4.39821 -18.0622
100 34 1 -5.64172 -4.57154 8.35486 -20.828 -4.98 27.3822
102 34 2 -5.9982 -5.27131 7.64353 19.8113 13.8686 4.37197
101 34 2 -5.04385 -3.82877 7.98995 5.59763 -1.43407 -16.6857
577 193 1 -1.17968 -3.53593 6.30906 13.6002 17.411 -2.01177
578 193 2 -0.472925 -4.01158 5.69874 -24.38 -7.525 13.7107
579 193 2 -1.8542 -4.06633 6.87301 10.6171 -8.54798 -13.8261
252 84 2 -0.271431 -2.28771 9.42471 6.88861 5.45794 -4.30857
400 134 1 -4.03977 -2.68954 7.00997 -17.5755 -28.7154 9.24851
401 134 2 -3.20799 -2.30531 7.43372 4.02703 17.3363 -5.26572
73 25 1 -1.20447 -1.01408 7.644 25.5719 24.7992 -16.1505
402 134 2 -4.75109 -2.07101 6.60646 16.6983 9.86152 -1.98614
74 25 2 -0.938781 -1.90593 7.23183 -9.75732 -19.802 -0.00986135
251 84 2 -0.212393 -3.88421 9.26443 5.9894 -1.75139 -6.71098
160 54 1 -7.13968 -2.24208 5.27679 -16.0903 -10.2301 -7.6381
162 54 2 -6.84619 -2.99785 4.63291 4.31532 2.53264 4.65591
245 82 2 -3.05517 -0.0738072 8.04185 7.98912 -4.82606 -4.78407
511 171 1 -6.71529 -4.59104 3.67602 -5.07663 5.773 3.16131
96 32 2 -0.0298515 -5.94087 6.03175 -2.5622 -3.67002 3.83501
126 42 2 -5.70904 -7.1975 6.47516 -4.07003 -14.9493 15.8568
405 135 2 -1.11125 -1.27079 4.35368 -12.1462 -10.0494 9.03975
75 25 2 -0.50469 -0.427544 7.12864 -20.4661 -0.437388 17.4927
425 142 2 -0.784167 -5.78926 8.49143 -12.8082 -7.95526 -4.17596
424 142 1 -0.983196 -5.20449 9.31179 18.6802 7.89659 1.95593
254 85 2 -5.84331 -0.938154 5.5984 2.86564 0.668192 -9.6671
253 85 1 -4.95782 -0.422356 5.4665 -9.05088 -6.91757 13.5437
489 163 2 -0.911352 -0.135061 9.3109 -1.22377 2.78417 -1.23527
591 197 2 7.27126 -1.85695 8.58369 -6.05474 12.6923 0.725326
590 197 2 6.27613 -0.410998 8.2827 13.8787 -20.8694 2.78274
250 84 1 0.344536 -3.02035 9.06288 -2.24103 9.88648 14.183
486 162 2 0.443189 -6.04535 4.02796 6.86874 -23.7808 -2.31343
272 91 2 6.77171 -4.89229 6.40271 -7.96235 -15.3136 3.39112
582 194 2 2.49669 -0.665536 3.52837 -14.3623 2.80474 -10.4349
580 194 1 3.50261 -0.819612 3.51306 22.124 11.4744 45.4565
589 197 1 6.51881 -1.41095 8.04829 5.97709 17.8291 5.02682
484 162 1 0.0514396 -5.21292 4.44522 -1.3787 -3.90977 20.2213
77 26 2 2.18726 -1.88587 9.12814 8.02312 6.79512 -0.0684466
485 162 2 0.368605 -4.57442 3.72927 -4.08565 27.3707 -11.4811
76 26 1 3.08274 -1.37447 9.12491 -14.9498 -12.0602 0.243332
294 98 2 3.98605 -3.48392 5.31514 0.237479 0.677056 -11.1197
292 98 1 3.8703 -3.52357 4.2891 4.17073 -19.2149 17.7126
293 98 2 3.76422 -2.59303 3.93683 -4.34299 20.9947 -9.15041
225 75 2 3.93476 -2.21449 7.27846 3.04257 -1.0604 5.11921
224 75 2 5.57838 -2.12456 7.1392 -12.198 -0.236328 8.987
223 75 1 4.72396 -2.61841 6.76635 -2.87489 -1.72106 -12.1322
581 194 2 3.83298 -0.323152 4.39575 -2.85837 -14.1418 -38.7954
512 171 2 7.09578 -5.16512 3.91605 -9.18518 -7.46504 3.89303
27 9 2 2.58228 -5.06025 8.67911 0.921956 2.09583 4.79444
94 32 1 0.0374831 -6.44206 6.93563 12.6326 12.5922 5.36209
95 32 2 0.804988 -5.95502 7.47978 -10.2036 -7.25293 -15.7404
273 91 2 5.37289 -4.13178 6.66452 -15.1773 8.24054 3.52354
25 9 1 1.87141 -4.90055 7.9601 -8.38813 16.5106 -2.93787
26 9 2 1.34118 -4.03055 8.23288 9.60007 -18.6101 -4.71751
161 54 2 6.4871 -2.4386 5.56055 15.2873 7.32001 -1.99421
289 97 1 5.29158 -7.05532 8.21741 3.81852 -8.48747 0.125733
149 50 2 4.9074 -6.74343 5.16467 0.573796 6.39889 13.4355
271 91 1 5.76666 -5.06708 6.55057 21.1519 4.64444 -7.94297
464 155 2 2.08148 -0.363785 7.21095 7.16169 8.74009 -6.64043
290 97 2 5.39253 -6.24831 7.60004 6.97957 11.6339 -11.8839
291 97 2 4.29921 -7.21283 8.42118 -0.0258942 -4.22753 14.0063
592 198 1 -5.26105 1.3484 3.57221 13.4207 6.03044 6.66037
450 150 2 -6.71248 3.73846 3.77088 -0.355937 -19.4438 32.7102
238 80 1 -1.73412 3.36735 4.59019 -17.1814 21.3697 6.12312
240 80 2 -2.44111 3.5554 5.35573 21.8443 -8.41617 -14.2163
239 80 2 -0.941023 4.02078 4.57817 -7.86091 -0.412155 5.42286
244 82 1 -3.83241 0.470478 7.67646 -2.98061 8.68865 7.92843
448 150 1 -6.57293 3.42358 4.77436 -5.27749 12.7526 -36.1628
449 150 2 -6.03633 2.54352 4.78516 -1.46571 3.74253 -10.871
232 78 1 -5.12209 5.55489 5.55804 -0.780151 8.8554 -7.16369
233 78 2 -5.64712 4.84034 5.01398 0.961671 3.02824 16.8271
234 78 2 -4.198 5.20872 5.78423 -0.08034 -4.64851 1.81772
51 17 2 -1.3037 1.88569 4.95517 -2.5401 13.5517 -0.982266
156 52 2 -4.82046 5.0907 8.93193 14.0283 -5.68574 10.7046
91 31 1 -3.27371 2.9355 6.78277 0.3221 -1.20057 -13.5682
92 31 2 -3.32642 1.93689 7.02686 -12.8439 -1.008 -4.55428
93 31 2 -2.68665 3.22143 7.56547 6.32802 13.0156 17.2822
190 64 1 -2.00169 3.24083 9.06985 -10.6292 8.00014 36.0307
192 64 2 -1.04288 2.88039 9.04428 9.2753 -1.03825 -4.6601
434 145 2 -5.10209 1.20402 9.00179 -16.5118 29.2228 24.0648
435 145 2 -5.63218 2.79669 9.19592 -0.192836 -6.88883 5.16697
433 145 1 -5.66064 1.86488 9.63531 26.2714 -32.8845 -42.291
49 17 1 -1.17015 0.890942 4.76647 9.89241 -32.339 -2.61452
50 17 2 -1.84827 0.62266 4.04878 -0.194033 -4.39738 2.3723
255 85 2 -5.08974 0.343399 4.78277 0.386057 -1.8999 -7.74241
246 82 2 -4.02155 0.228527 6.68118 -5.34783 -8.54051 6.14262
428 143 2 -7.13395 1.23164 9.0087 -4.86098 17.7415 -8.35167
330 110 2 5.32417 1.7212 3.27812 -4.61387 7.99009 10.5667