ITEM: TIMESTEP
49500
ITEM: NUMBER OF ATOMS
648
ITEM: BOX BOUNDS pp pp pp
-7.2235497055869891e+00 7.2235497055869891e+00
-7.2235497055869891e+00 7.2235497055869891e+00
-1.6052332679082458e+01 1.6052332679082458e+01
ITEM: ATOMS id mol type x y z fx fy fz
29 10 2 -5.9172 -4.31579 -14.4256 -6.97522 17.0648 -5.06435
637 213 1 -5.00659 -5.98695 -11.0293 -21.924 -1.80297 -6.17669
639 213 2 -4.84678 -6.3056 -11.9959 1.98971 2.69968 -3.77081
638 213 2 -6.03681 -5.9411 -11.0005 7.33522 3.99178 4.46138
30 10 2 -5.35582 -5.72967 -14.4998 9.34259 -17.6643 -10.6798
131 44 2 -5.74333 -2.29706 -13.0665 4.19447 3.44878 0.101156
556 186 1 -4.33971 -6.7799 -13.5446 19.972 8.30238 27.8243
201 67 2 -2.48842 -6.02565 -11.1185 0.507197 -0.412421 9.96003
200 67 2 -1.50544 -5.49482 -12.281 -4.14001 -0.784837 -2.76982
557 186 2 -3.49682 -6.52745 -12.9633 -9.88837 -4.13872 -14.9587
28 10 1 -5.55648 -4.95326 -15.143 -2.37401 2.65331 14.9926
618 206 2 -0.723643 -2.40883 -12.8325 -20.1777 -21.7691 0.995136
523 175 1 -2.96249 -4.11962 -14.995 37.0141 9.65807 -5.86555
199 67 1 -2.13597 -6.27606 -12.0463 0.0162299 -2.85114 -11.0487
44 15 2 -2.6012 -4.30848 -9.64997 -6.53919 21.0746 -3.74267
130 44 1 -6.40824 -2.96141 -13.4623 14.2294 -0.458556 -16.3043
132 44 2 -7.1438 -3.03252 -12.7591 -11.5114 -3.35033 10.9932
368 123 2 -0.465139 -4.26068 -13.5206 20.4676 -12.258 -8.61197
367 123 1 -1.27841 -3.87049 -13.0756 -5.97764 6.4178 3.90408
595 199 1 -4.48203 -0.531367 -12.4708 8.64375 0.2231 18.0668
84 28 2 -4.76918 -3.03251 -9.70748 14.6133 3.27325 -5.83635
525 175 2 -2.96548 -3.24291 -15.5035 -11.1728 7.13799 -4.86121
369 123 2 -2.01665 -3.79547 -13.8177 3.31284 -10.5586 7.72042
524 175 2 -3.86956 -4.52794 -14.907 -32.9917 -10.1509 -4.0929
625 209 1 -2.99791 -2.61396 -9.72008 -13.8871 -2.68916 -16.9024
597 199 2 -4.51819 -0.0510008 -13.3809 7.30348 0.806818 -5.06209
596 199 2 -3.58581 -0.339262 -11.9755 -13.9831 -3.536 -11.5031
616 206 1 -0.566464 -1.42967 -12.6155 -7.67669 21.3334 16.8612
198 66 2 -1.56409 -0.602772 -11.4889 -6.21228 -0.482851 -1.69156
196 66 1 -2.09289 -0.0823408 -10.7585 14.0036 -5.62789 -6.37755
626 209 2 -3.24024 -1.67833 -10.108 16.6389 -13.4446 13.0693
45 15 2 -3.81549 -5.4222 -9.76111 1.13996 -1.68143 -4.47625
216 72 2 -4.44746 -0.736396 -15.902 4.78698 4.42453 1.10177
215 72 2 -5.2431 -2.10263 -15.448 11.4526 5.13935 -15.2557
8 3 2 5.56369 -5.24744 -11.265 -17.7487 13.0175 4.73815
477 159 2 0.510148 -5.84543 -9.74614 -3.33078 -19.0354 11.7247
632 211 2 5.67164 -5.02482 -14.6711 0.509142 -9.59269 2.78039
7 3 1 6.29237 -5.8706 -11.5944 25.1297 -29.6037 7.22098
476 159 2 0.642779 -6.47541 -11.3709 -1.78627 -27.8339 -4.22683
383 128 2 5.7836 -1.60392 -12.3043 9.16329 -6.69647 1.45406
285 95 2 5.69495 -3.38691 -10.831 -16.7485 -15.7189 8.9381
145 49 1 3.65614 -2.21553 -14.6759 21.0704 -17.0871 -15.1369
146 49 2 4.12266 -1.70214 -13.9285 3.22408 2.89329 -0.12307
516 172 2 2.36921 -6.18746 -13.8184 -10.0965 13.981 -10.5806
514 172 1 2.98049 -6.99353 -13.9466 -16.3123 -1.21041 5.11894
515 172 2 3.90308 -6.64996 -13.792 34.0694 21.1323 -3.61514
147 49 2 4.40552 -2.73575 -15.2051 -21.2004 15.7813 14.5538
67 23 1 1.31437 -2.99742 -11.4613 18.1171 2.92844 6.13848
68 23 2 1.2007 -3.87974 -10.9826 1.74551 -23.2878 4.29595
69 23 2 0.375098 -2.67478 -11.6219 -13.4131 11.8057 -6.88445
633 211 2 6.21028 -6.00429 -13.4384 16.3467 -0.131422 30.2732
631 211 1 5.57429 -5.94511 -14.2069 -22.2546 6.64399 -39.7443
621 207 2 3.75089 -3.9058 -11.0532 -0.691666 -11.4903 5.84625
382 128 1 5.55254 -0.796264 -12.8917 4.2582 -19.4309 -10.4023
9 3 2 6.19039 -6.70174 -10.9937 7.77067 2.21872 -13.3184
585 195 2 1.64339 -3.87941 -14.2459 8.43851 5.74057 5.35858
384 128 2 4.98852 -0.217302 -12.309 -18.5808 27.7601 16.8145
475 159 1 0.67075 -5.70535 -10.7226 3.34979 45.5396 -14.3436
173 58 2 5.12879 -7.19336 -15.6269 -19.3818 6.67727 -26.7759
584 195 2 0.960468 -4.85757 -15.3399 -1.51858 -8.60143 -7.2659
583 195 1 1.24254 -4.80449 -14.3507 -6.24846 2.97638 3.46355
617 206 2 0.00813036 -1.15258 -13.4086 14.0825 15.2701 -13.7277
274 92 1 2.39676 -0.770947 -10.4215 -10.4481 -20.7365 -21.9756
437 146 2 0.684566 -0.199402 -15.6508 0.1002 -11.8516 32.6954
436 146 1 0.848969 -0.627621 -14.7007 -10.4296 20.1374 -45.6048
438 146 2 1.83746 -0.806185 -14.7732 18.6314 -11.3109 9.35169
276 92 2 1.87227 -1.48603 -10.9835 18.3513 2.02527 8.12834
275 92 2 1.64343 -0.17778 -10.1114 -11.9319 19.1489 11.0983
620 207 2 3.83862 -4.81105 -9.65186 -15.1507 -2.78155 4.57046
619 207 1 4.32059 -4.57607 -10.5144 2.91511 23.9513 -12.3799
284 95 2 7.11207 -2.63296 -10.6479 7.70668 -0.977604 2.30632
283 95 1 6.39346 -2.87624 -11.3383 12.3051 19.9448 -5.14665
572 191 2 6.92365 -3.20322 -15.3726 3.71065 3.80592 -6.51743
571 191 1 6.06749 -3.42324 -15.8812 -17.015 -2.81635 2.54359
169 57 1 -4.04534 6.02987 -10.3082 14.1219 10.4497 10.6775
171 57 2 -4.29734 5.33396 -11.0237 -5.05487 -3.53207 -4.59877
170 57 2 -4.1556 6.97496 -10.7164 -5.9761 -8.57296 9.0955
558 186 2 -4.0958 6.84721 -14.1076 -9.19964 1.49908 -10.0581
488 163 2 -6.80537 5.17037 -12.3108 -3.36422 14.9837 -7.16304
269 90 2 -1.70127 6.74788 -13.6497 9.37234 -3.49905 -9.53802
360 120 2 -5.14756 3.6526 -12.8284 -8.63171 5.32843 2.61078
363 121 2 -6.03256 1.78935 -12.3707 -15.9247 19.5343 -34.8534
362 121 2 -6.80359 1.86636 -13.9113 17.2007 15.3518 19.2684
361 121 1 -6.25437 2.43418 -13.1939 -5.02653 -48.0013 9.78759
447 149 2 -0.62021 0.627114 -14.1862 -30.491 39.8899 -47.0111
519 173 2 -1.65671 3.04903 -13.9141 4.35843 1.30964 -2.61749
517 173 1 -1.95039 3.82758 -13.3071 -27.755 -28.5484 12.2189
518 173 2 -1.44226 4.65814 -13.5072 21.443 24.2808 -12.3136
358 120 1 -4.61058 4.28354 -12.2032 -5.31158 -12.2568 -6.70753
359 120 2 -3.65076 4.06684 -12.436 18.5861 2.60325 -3.32425
268 90 1 -1.04726 6.4342 -14.3892 -8.96616 17.7311 23.3211
222 74 2 -6.93937 2.42777 -10.8015 -6.74028 -21.1874 1.39751
221 74 2 -5.75792 3.46718 -11.1197 8.13553 10.139 1.69252
508 170 1 -2.10834 2.68274 -10.8716 -6.83165 -17.527 17.8464
510 170 2 -2.0684 1.63098 -10.9179 -0.887388 26.3411 -8.23447
509 170 2 -2.10975 3.19383 -11.7682 7.98308 -9.8157 -5.30518
197 66 2 -1.27912 0.125814 -10.1185 -17.0125 2.9921 -8.36893
220 74 1 -6.45635 3.22599 -10.4134 -1.10255 26.9701 11.2074
270 90 2 -0.214107 7.01026 -14.2057 -0.193355 -9.93236 -1.81283
318 106 2 -5.71305 0.0463916 -11.3296 -18.3452 6.5804 6.10606
332 111 2 -3.11269 0.999026 -14.7894 4.81912 15.4746 -10.4749
445 149 1 -1.20047 1.30692 -14.8031 22.6757 -30.8213 45.1169
331 111 1 -4.07719 0.684399 -14.9099 -15.476 -29.079 12.461
570 190 2 -1.30367 5.69567 -15.6984 -19.6984 -10.5608 -15.0597
446 149 2 -1.10336 1.15053 -15.8188 -3.86058 -1.39103 3.40807
15 5 2 -0.0203594 1.91593 -10.2535 3.24051 7.925 0.553728
481 161 1 -7.21236 5.95435 -10.5978 -16.5917 -3.50919 -22.6562
483 161 2 -6.94122 6.35504 -9.74323 13.4107 15.5942 31.4249
317 106 2 -7.15382 0.187876 -10.3718 6.10746 1.94619 -4.32528
316 106 1 -6.49021 0.672897 -11.0049 8.30245 -20.0533 -7.66031
187 63 1 -4.30212 6.3068 -15.9778 -32.8266 18.0398 -13.2478
333 111 2 -4.76002 1.31892 -15.3269 12.521 14.3656 -2.84575
127 43 1 -3.84128 3.43884 -15.8048 20.692 0.678028 -10.2169
128 43 2 -4.19892 3.86549 -14.973 -10.6915 5.34377 9.18285
129 43 2 -2.92166 3.8973 -15.9729 -12.3872 -7.61318 -8.26475
487 163 1 7.1571 5.01272 -13.2036 -9.31261 -28.494 3.58694
489 163 2 6.9805 3.98488 -13.2031 7.9502 21.5105 -8.66779
117 39 2 6.52413 0.266375 -13.8227 -2.15391 -9.04493 -0.970034
371 124 2 4.53417 5.96717 -11.3293 -3.67971 -0.705606 8.38188
370 124 1 3.67763 6.26283 -10.8471 15.5916 2.07888 -7.44783
372 124 2 2.97194 6.13157 -11.5596 -12.3477 -0.697461 1.08133
423 141 2 1.81683 6.90789 -13.1214 8.45489 1.43503 -8.91138
422 141 2 1.03828 5.54096 -12.673 -1.11538 -8.90715 -3.62094
13 5 1 0.0858927 0.985554 -9.85336 14.0235 -7.8806 3.34659
555 185 2 4.23821 1.68701 -10.8189 -1.45431 12.7194 23.3121
553 185 1 3.9276 1.18336 -11.6345 6.85651 -11.7116 -42.5836
391 131 1 1.75321 3.56611 -10.5935 2.56706 -11.0512 -16.7066
392 131 2 1.47263 4.34158 -9.95109 0.0975893 -2.19147 -4.37037
378 126 2 4.01286 6.26619 -13.6842 -8.90566 -13.4843 -4.45714
554 185 2 3.09393 0.624242 -11.4501 -1.40776 -3.62108 12.3206
37 13 1 1.56011 4.03661 -13.2029 10.6791 -10.7459 -1.43299
39 13 2 1.85963 4.20138 -14.1692 -3.54477 0.5434 2.70128
421 141 1 1.01926 6.56128 -12.5786 -12.7856 7.6151 23.2181
393 131 2 1.57176 3.7347 -11.6145 -4.49026 8.03838 27.7618
377 126 2 5.38561 5.33355 -13.7213 23.366 -4.02205 2.65735
482 161 2 7.08657 4.96219 -10.4425 2.74424 -11.4136 1.40035
38 13 2 2.26777 3.35987 -12.8782 -1.03693 2.32879 -10.3034
644 215 2 3.96476 1.84366 -13.3981 6.7138 -14.1011 13.4854
643 215 1 3.62733 2.24729 -14.2583 -11.6453 24.1298 -10.5639
645 215 2 3.70851 1.68404 -15.1067 6.66477 -11.0605 -3.11528
376 126 1 4.3932 5.31444 -13.5536 -8.83728 2.5592 3.35231
185 62 2 4.38922 3.43645 -15.7804 -2.64781 6.02642 -13.0429
230 77 2 3.15392 2.96025 -9.84985 9.1869 6.1535 16.4359
115 39 1 6.76929 0.674894 -14.7358 -4.48927 6.79288 -1.14408
116 39 2 5.94925 0.474746 -15.3168 8.61128 4.87864 -2.60743
82 28 1 -5.71534 -2.78921 -9.43804 -18.3589 -2.69108 -5.22938
627 209 2 -2.10329 -2.65194 -9.22787 3.56778 22.2529 7.60249
43 15 1 -2.80915 -5.29523 -9.5758 2.32983 -22.9207 6.15948
351 117 2 -3.88309 -0.642098 -7.20554 1.62798 -33.7584 29.8285
350 117 2 -2.77276 -1.67825 -6.69407 -8.61605 -3.00078 2.74463
413 138 2 -5.10737 -4.85342 -6.84333 -7.00413 3.42725 -3.23765
412 138 1 -4.32708 -5.28796 -6.37442 10.5122 -10.1819 4.4827
431 144 2 -1.60016 -5.8548 -8.51917 -28.6507 3.33179 -17.5297
414 138 2 -4.24252 -6.29094 -6.61811 0.183731 5.5428 -2.25223
430 144 1 -0.836073 -6.19975 -7.9635 23.0123 -5.15641 8.9137
277 93 1 -6.24955 -4.13819 -4.41523 -12.1522 -25.3428 47.8914
602 201 2 -5.20166 -2.12774 -6.61051 1.18536 -5.85441 6.65216
83 28 2 -5.75094 -2.91713 -8.42977 -4.52138 1.65445 8.13218
576 192 2 -0.642959 -2.57365 -7.31596 12.3966 -8.00496 6.7938
279 93 2 -6.10279 -3.86147 -5.36003 -2.3434 10.7733 -37.9826
432 144 2 -0.216768 -5.40195 -7.87133 0.311299 3.26606 12.0769
537 179 2 -3.66811 -2.22554 -4.49091 28.9706 -10.0145 -26.7171
349 117 1 -3.75836 -1.44124 -6.49641 17.6946 39.7291 -47.7718
53 18 2 -1.81556 -5.54621 -5.93346 4.19585 17.0172 20.6873
52 18 1 -1.80833 -4.8143 -5.18205 22.8869 -30.7781 -13.5978
54 18 2 -2.74374 -4.47514 -5.16234 -28.6773 8.13129 -1.97736
278 93 2 -5.75053 -3.4145 -3.91742 9.75183 13.4454 7.98817
282 94 2 -0.428266 -3.9463 -5.77469 1.06945 -4.13531 -14.4715
535 179 1 -4.36624 -2.109 -3.81099 -28.1852 8.74277 22.0763
536 179 2 -4.74696 -1.21549 -4.12389 -6.6244 1.59768 6.26737
603 201 2 -6.80791 -2.1145 -7.01011 -3.82359 3.47751 7.72892
601 201 1 -6.06129 -2.71661 -6.65894 2.64437 2.15481 -18.3324
575 192 2 -0.677793 -0.862897 -7.60168 -2.37718 -8.04693 0.566902
574 192 1 -1.08642 -1.79784 -7.81842 -21.2095 24.8343 -17.6046
299 100 2 -1.19705 -5.08382 -3.40328 -7.34304 12.1553 18.7011
312 104 2 -4.01429 -6.55967 -3.69828 2.23395 -7.97389 6.14636
280 94 1 0.103484 -3.69738 -6.64181 21.0319 -6.56049 19.1795
281 94 2 0.889156 -3.08965 -6.31995 -1.62712 -3.53519 -3.56968
79 27 1 6.69179 -0.411289 -3.22485 8.27523 4.8968 22.8441
544 182 1 2.24564 -2.11795 -6.08146 -10.0425 15.0917 36.704
504 168 2 6.16563 -5.8879 -7.03874 35.121 -43.5675 -13.6499
502 168 1 5.72169 -5.09526 -6.66855 -40.3765 44.8197 23.8986
503 168 2 5.14749 -4.70603 -7.40265 -0.640076 8.68364 -3.61293
548 183 2 5.28249 -4.46202 -4.86985 13.7988 -2.91229 9.1525
533 178 2 1.63875 -4.69449 -7.81708 9.99929 6.97071 -13.5354
532 178 1 2.36181 -4.8296 -8.54725 -0.100655 -11.1721 38.7044
534 178 2 2.77217 -5.76936 -8.30745 -5.62154 8.19377 -13.5549
547 183 1 5.32602 -4.48843 -3.83187 -2.43594 5.50264 -19.3079
549 183 2 6.28447 -4.64094 -3.49256 1.51945 2.17214 -15.3722
467 156 2 4.8625 -0.454172 -8.79636 29.5497 -12.986 -21.7693
606 202 2 1.95638 -5.62819 -3.74595 -6.44981 -9.89636 -2.33924
604 202 1 2.09768 -6.64541 -3.62718 5.22409 24.6327 -4.62607
466 156 1 5.724 -0.0190559 -9.20986 -51.2731 -2.00257 29.045
545 182 2 2.37916 -1.38713 -5.31018 5.61644 -24.6798 -37.3039
546 182 2 2.74602 -1.95259 -6.96766 7.0241 10.9434 6.48227
491 164 2 6.00282 -0.208124 -7.28122 13.4377 8.99578 8.79683
611 204 2 3.11621 -3.0018 -8.40204 -8.24466 -23.3508 3.87494
490 164 1 6.72444 -0.104938 -6.55089 3.28079 -38.1328 -17.9229
610 204 1 3.63385 -2.14553 -8.46099 5.05019 13.9003 -14.9721
612 204 2 3.36094 -1.78291 -9.39774 0.574579 9.78887 11.676
342 114 2 1.8564 -3.08887 -3.93141 -5.00202 -0.62498 2.24295
347 116 2 4.67987 -6.36171 -5.63347 3.948 -13.8885 15.8477
346 116 1 4.48158 -7.10624 -4.93303 -28.1207 14.6351 -12.3839
348 116 2 3.50113 -6.94673 -4.57494 25.8603 -4.40601 -4.39212
340 114 1 1.1 -3.65877 -3.54401 12.6174 -2.70536 -9.95449
339 113 2 3.84119 -1.04379 -3.50325 14.5538 -24.7537 8.00971
337 113 1 3.10846 -0.484295 -3.92032 -12.7315 42.5378 -4.26055
193 65 1 -3.80394 0.547073 -8.56319 -7.81162 -14.4128 30.182
194 65 2 -3.47675 0.630397 -9.50533 10.0904 0.87079 -18.0455
559 187 1 -1.65057 5.55107 -8.75625 13.6614 29.8557 21.3605
561 187 2 -1.77362 6.41353 -8.20987 8.686 0.353682 -4.22677
560 187 2 -2.29592 5.62128 -9.52627 -13.6894 0.912934 -19.5962
267 89 2 -4.1068 5.85867 -6.35519 -13.3508 -13.4819 12.5765
505 169 1 -5.0745 0.931499 -5.27347 -28.0083 -5.64932 -3.49551
473 158 2 -2.16206 6.27821 -6.05205 -7.65271 5.64381 1.19376
266 89 2 -3.9929 6.16183 -7.9724 -4.67631 -5.762 -18.517
265 89 1 -3.82316 6.52994 -7.05072 10.738 15.6665 6.74008
122 41 2 -5.3312 5.42373 -4.01792 2.64261 -9.59171 -10.3459
387 129 2 -0.138207 5.96547 -5.07662 -3.86169 13.6241 1.91235
121 41 1 -4.98459 4.90874 -4.84623 -14.7332 23.8632 2.87973
286 96 1 -2.95462 3.50093 -8.27175 -32.797 -41.5171 9.81622
288 96 2 -2.3229 4.27288 -8.10239 12.1295 18.8871 -0.622745
287 96 2 -2.71952 3.26795 -9.24199 -0.172458 -8.40222 -5.49305
195 65 2 -4.43714 1.29974 -8.31549 -7.66727 8.7417 -2.70174
636 212 2 -2.7679 1.87127 -6.17487 15.9371 -8.17127 17.996
403 135 1 -5.67765 2.68383 -7.87759 -2.15019 3.71519 -19.7336
404 135 2 -6.0022 2.86296 -8.86321 -0.864353 -4.42796 16.3654
405 135 2 -4.76907 3.15283 -7.82965 6.57684 1.94247 2.90834
402 134 2 -7.01043 3.60447 -6.63772 16.3313 -13.087 -11.7911
634 212 1 -2.39116 1.48563 -5.2805 -7.96825 10.7748 -31.9547
635 212 2 -2.4638 2.21545 -4.56318 -0.208743 1.9635 -1.76214
123 41 2 -4.03155 4.54704 -4.64341 -1.5941 -7.13914 3.37608
178 60 1 -2.72394 3.92897 -4.14863 33.1957 -1.7469 44.134
507 169 2 -5.61841 0.841396 -6.14795 10.5074 1.82959 9.78918
474 158 2 -2.08942 6.33878 -4.36838 -24.2968 6.73371 25.169
472 158 1 -1.58203 6.39695 -5.22103 16.0867 -4.0118 -29.9986
364 122 1 -0.23121 0.684014 -7.19211 46.0111 -0.516682 12.6166
365 122 2 -0.738399 1.12688 -6.45224 -28.0162 6.05112 12.7121
401 134 2 -6.61092 4.80181 -5.56691 1.81651 -7.09919 -6.3336
615 205 2 -5.82211 1.21639 -3.72061 2.79194 29.9672 25.2029
179 60 2 -1.7362 4.26652 -4.1923 -19.5216 -6.14589 -2.1747
506 169 2 -4.10649 1.20363 -5.42386 8.32036 -5.21935 1.68352
309 103 2 0.866873 6.28949 -8.83233 2.40122 -4.26823 -0.116995
308 103 2 0.218795 4.91481 -8.24711 -3.75454 -0.283092 -3.91653
307 103 1 1.0223 5.28537 -8.75083 7.50295 7.8871 3.0347
478 160 1 3.34482 7.12725 -8.31219 7.16662 5.26586 -12.059
479 160 2 3.36916 6.85481 -9.33049 1.65845 1.23537 13.1729
386 129 2 1.33118 6.64165 -4.53385 3.0677 21.5313 9.50912
81 27 2 6.61722 0.00329423 -4.13335 -2.53467 4.27755 -22.5837
543 181 2 6.95593 6.05056 -7.14889 1.52256 -18.5015 9.3751
14 5 2 0.143856 1.05097 -8.8231 -4.54139 -0.877338 1.16749
480 160 2 3.43246 6.24142 -7.81164 -3.6092 -8.43643 0.836233
366 122 2 0.746548 0.777784 -6.78634 -15.5372 -5.91737 -22.4976
542 181 2 5.57347 6.9698 -7.4369 -15.1959 -11.2512 -2.12455
541 181 1 6.57611 6.96413 -7.35253 11.2198 19.6942 -14.568
60 20 2 3.01499 4.19811 -4.84433 -1.54977 -4.02314 -3.39147
58 20 1 2.27006 3.87528 -5.49286 11.9523 -13.9528 6.10721
468 156 2 5.36541 0.916442 -9.03188 14.4758 15.0303 -13.707
385 129 1 0.846041 5.79115 -4.79579 -0.584168 -23.915 -2.86861
229 77 1 4.03334 2.64913 -9.36596 4.03047 -25.1178 -20.4936
57 19 2 2.65507 0.893225 -5.43037 -9.41506 5.28234 -24.2784
56 19 2 2.03343 2.23483 -6.20275 3.50807 17.2371 1.85825
55 19 1 2.221 1.23981 -6.31475 7.81265 -22.4647 27.2765
59 20 2 1.57797 4.64026 -5.29821 -2.36545 -4.87139 -7.78054
344 115 2 3.89376 3.86804 -6.54457 -7.39425 19.7849 -26.348
492 164 2 6.72858 0.745504 -6.03043 -11.3149 28.0168 12.4222
343 115 1 4.30181 4.43844 -7.32454 -9.493 -20.574 28.0873
345 115 2 5.26406 4.54061 -7.06574 23.2736 7.1479 0.966553
500 167 2 6.2952 2.92611 -5.25064 3.03151 12.978 1.44778
501 167 2 5.46701 2.0763 -4.06086 -1.83501 0.0545617 1.34118
499 167 1 6.16204 2.02891 -4.80618 -3.9788 -13.2542 -4.37468
231 77 2 4.27272 3.14306 -8.50749 -13.6501 19.2578 1.81387
381 127 2 6.64954 6.47277 -4.02768 -15.9125 16.0344 -25.9317
400 134 1 7.12236 4.48183 -6.25068 -14.8498 12.8657 10.7913
449 150 2 3.79126 2.97911 -3.29563 1.97255 11.2842 -2.64971
151 51 1 4.04095 4.89453 -3.86857 -2.66693 -35.7216 25.1633
153 51 2 4.27885 5.67942 -4.44291 9.17619 31.5884 -17.8583
338 113 2 3.38085 0.485608 -3.60608 -6.91977 -18.3498 -8.43511
135 45 2 -4.07115 -2.96774 -1.7739 3.88539 7.93189 4.79679
456 152 2 -6.14526 -5.3574 -3.05568 2.88445 9.97688 -12.0829
454 152 1 -5.95389 -6.07484 -2.3609 -4.56514 -3.66881 5.00244
133 45 1 -3.18049 -2.90965 -1.26148 -8.46773 9.88649 -4.33151
233 78 2 -6.52498 -1.76943 1.47884 -27.6783 -8.04445 -0.605096
234 78 2 -5.41566 -0.639847 1.22714 7.65792 24.7359 -1.56444
455 152 2 -6.00113 -5.63982 -1.40554 10.0563 -2.31728 -17.364
232 78 1 -5.54963 -1.61324 1.44604 24.3224 -24.6178 1.40765
420 140 2 -3.88427 -2.59424 1.32198 -8.87982 1.24534 14.7135
418 140 1 -2.89956 -2.87297 1.37644 0.416394 5.0021 18.3258
419 140 2 -2.6559 -2.68641 0.42016 0.0200069 -6.05955 -24.2115
310 104 1 -3.28741 -7.00788 -3.12448 -6.37039 4.48474 -5.57241
311 104 2 -2.75012 -6.22911 -2.74139 8.12701 1.14908 3.18529
42 14 2 -4.34173 -5.2782 2.16062 4.27075 -9.24043 3.80647
529 177 1 -5.65874 -4.80971 -0.104346 27.9414 -5.46768 7.71634
530 177 2 -4.75983 -5.08585 0.35622 -19.447 7.50711 -13.413
300 100 2 -0.394483 -4.70904 -1.99415 -13.4389 -1.27141 -3.42927
12 4 2 -2.48014 -1.25225 -0.861541 -8.86842 -5.70637 -10.9565
134 45 2 -2.58438 -3.57113 -1.73828 15.9644 -13.6032 -7.28645
428 143 2 -1.34759 -3.72729 1.21513 -19.9796 10.0114 14.4317
10 4 1 -1.87917 -0.550541 -0.429105 0.99615 10.6306 -4.29074
531 177 2 -6.43712 -5.37854 0.212758 -6.49033 -2.06927 10.7788
427 143 1 -0.577852 -4.38272 1.22452 25.9393 -18.9767 -8.88133
99 33 2 -2.07473 -5.6479 0.661367 8.07947 19.7512 9.29274
97 33 1 -3.05122 -5.80413 0.892705 5.02267 -2.96359 -5.22861
298 100 1 -1.34384 -4.8701 -2.38477 11.6302 -9.85203 -14.9985
567 189 2 -6.91361 -6.82219 2.60043 7.53211 -14.6594 -3.22322
11 4 2 -1.37224 -1.04595 0.279865 7.40304 -2.58389 11.7915
40 14 1 -5.10997 -5.49011 2.80937 29.066 -6.17 6.33784
41 14 2 -5.88839 -5.01701 2.41378 -35.1877 16.4632 -8.1326
429 143 2 -0.372175 -4.7757 2.15309 -5.26859 9.2038 -3.16823
98 33 2 -3.1851 -6.58854 0.251283 -21.726 -17.2508 -4.92461
293 98 2 5.67951 -1.56701 -2.75692 15.7081 6.79616 -8.3462
605 202 2 2.42802 -6.74559 -2.67257 4.06393 -2.33964 6.7546
297 99 2 5.44604 -2.02278 2.59841 2.43185 4.46411 -9.08669
17 6 2 4.4914 -5.25012 -2.77307 7.83903 -6.13636 7.34277
16 6 1 4.28664 -5.59349 -1.80778 -3.67223 -20.9905 0.600395
341 114 2 1.23079 -3.85758 -2.53722 -2.05321 1.77635 -0.325358
258 86 2 0.408673 -4.20784 -0.221603 -2.93208 -13.1138 -0.326246
294 98 2 5.03332 -3.10743 -3.18716 3.9201 13.387 1.99459
292 98 1 4.84744 -2.16607 -2.76563 -29.8194 -17.5363 10.9513
623 208 2 3.75998 -7.00877 1.59712 16.2822 9.44798 -3.48605
296 99 2 5.01056 -1.23224 1.0812 16.8068 -8.35805 18.1677
295 99 1 4.95514 -2.08488 1.69013 -16.3667 -6.65951 -3.08051
417 139 2 5.72335 -6.24763 3.11217 1.01239 -1.25589 -6.9977
622 208 1 4.57257 -6.52494 1.18212 -23.3179 -8.02028 -4.03668
624 208 2 4.52618 -6.62726 0.157042 1.36247 4.60022 10.8677
257 86 2 1.85356 -3.70873 -0.627608 7.6808 -13.8942 -9.41019
256 86 1 1.09308 -4.31047 -0.990822 -3.50973 20.9287 17.1091
5 2 2 3.86865 -2.58169 -1.03704 12.6089 14.1792 -11.3963
435 145 2 6.30619 -3.94211 2.26265 -6.93513 7.91309 0.512214
433 145 1 6.70232 -4.81348 1.92957 -2.12232 -24.5897 -7.28331
434 145 2 6.00372 -5.35984 1.38086 3.59272 11.115 9.38466
6 2 2 3.8108 -3.07352 0.580562 9.03008 1.80015 -13.5883
4 2 1 3.63854 -3.33818 -0.412258 -17.6544 -13.2339 21.7283
18 6 2 4.08448 -4.73717 -1.29898 -6.64267 12.8223 16.8265
539 180 2 6.0553 -6.42798 -0.955746 6.34641 -8.46994 -1.40853
538 180 1 6.72162 -7.04282 -0.463928 -1.96971 -7.89655 -3.11975
380 127 2 -6.76514 6.99485 -2.77388 -1.79645 4.6243 -10.7792
586 196 1 -0.207368 4.61447 -2.39352 13.5317 15.6938 -3.04452
613 205 1 -5.91559 1.80134 -2.83254 -29.0625 -27.0067 -35.9056
66 22 2 -2.58202 0.896249 3.06587 26.7625 -6.55432 10.1488
614 205 2 -4.98448 1.89462 -2.45603 21.9287 -3.80215 12.5589
217 73 1 -5.14906 1.02118 1.31388 15.3063 11.1662 -45.0931
218 73 2 -6.05088 1.36925 1.54883 -34.9937 5.99383 19.6128
219 73 2 -4.90411 1.64952 0.530354 4.36332 -16.2674 7.54194
180 60 2 -2.87851 3.69459 -3.13605 0.823726 4.20313 -27.2741
565 189 1 -6.95272 6.65807 2.23542 -8.27874 20.7275 -20.1047
648 216 2 -3.69597 6.73134 -1.42201 1.30518 -5.75255 -0.356864
20 7 2 -3.24018 2.40207 -1.06867 -0.949906 -9.59142 -13.2884
646 216 1 -3.51868 6.41064 -0.456942 3.04092 2.80103 -0.814232
647 216 2 -3.30117 5.40428 -0.411822 -2.52478 4.36664 -5.10318
19 7 1 -3.57867 1.52165 -1.51444 12.952 14.9041 21.1631
21 7 2 -3.01142 0.762314 -1.1049 -3.21409 0.389933 -6.5569
26 9 2 -1.97245 5.35475 2.15369 1.43917 7.82804 -4.46724
320 107 2 -1.86732 3.91996 0.0352881 0.332393 -2.17134 13.7397
321 107 2 -1.7485 4.51224 -1.49172 14.6594 -1.61455 -10.5295
319 107 1 -2.30449 3.91655 -0.884784 -30.0635 -6.57673 -4.52644
470 157 2 -0.437238 4.60883 0.928322 -12.7278 -13.2959 1.60129
27 9 2 -2.48722 4.03491 2.62057 4.13971 -15.1132 -4.57947
25 9 1 -1.97036 4.37648 1.79701 1.19802 -7.84456 9.90639
410 137 2 -2.69009 7.05957 1.96812 -14.2681 5.17329 -16.344
65 22 2 -4.0341 0.775925 2.48666 -19.869 6.99372 -6.86348
409 137 1 -2.22402 6.67378 2.77039 12.7432 30.0301 23.8095
225 75 2 -0.811961 0.579516 2.07401 -5.54877 1.08233 17.3516
223 75 1 -0.962076 0.40928 3.08383 21.7239 1.01105 -26.5842
80 27 2 7.12905 0.305733 -2.64297 4.00556 -3.56168 -0.632021
379 127 1 7.13744 6.2229 -3.20639 19.1761 -18.2873 34.4081
587 196 2 0.634245 4.81881 -2.94397 -11.6377 -1.50248 -8.7578
124 42 1 5.9822 0.046153 0.54284 -9.40657 0.838616 17.9826
577 193 1 4.48605 4.59231 -0.85814 7.26499 9.04597 -19.0515
579 193 2 3.49311 4.54169 -0.726271 -8.04216 -0.028103 8.4125
469 157 1 0.325775 4.47226 0.259614 33.1628 33.9 18.0984
471 157 2 1.04258 5.09 0.699438 -11.0343 -16.0933 -8.07611
236 79 2 7.19489 2.14584 -1.73796 8.08169 4.35084 3.29511
235 79 1 6.68916 2.29282 -0.84976 3.00758 0.963133 -5.81503
566 189 2 7.06196 6.73179 1.27859 13.0998 1.80157 19.3839
237 79 2 6.00005 3.02797 -0.973296 -6.57269 5.50175 -0.816827
588 196 2 0.0407369 4.8895 -1.43174 -3.32627 -12.562 1.83099
125 42 2 6.38664 0.335108 -0.335647 3.54423 9.92942 -7.52526
450 150 2 2.90301 1.89644 -2.4839 -21.6023 -4.32563 18.7421
540 180 2 6.96525 6.57559 -1.03491 -5.33336 13.1053 3.38521
120 40 2 6.68229 3.78491 0.882685 -0.586749 8.25271 2.4107
119 40 2 6.65285 5.21318 1.82205 17.7371 16.1264 23.6117
329 110 2 2.72107 2.52895 2.21007 -10.0737 -0.897564 24.5792
448 150 1 3.68243 1.98986 -3.09806 17.3849 -1.14162 -15.8318
118 40 1 6.17341 4.63646 1.15754 -14.2367 -30.1385 -22.4915
126 42 2 5.98772 0.858505 1.18165 4.82554 -5.96406 -6.00365
152 51 2 4.4624 5.07156 -2.95279 2.0291 -0.966692 3.11252
578 193 2 4.98707 5.08152 -0.0881825 -2.74721 -15.7102 -1.60751
138 46 2 0.0793681 0.59708 -1.30443 25.8385 7.64754 -11.3897
136 46 1 1.04587 0.780603 -1.66784 -26.1279 1.85583 23.0764
137 46 2 1.24367 0.106414 -2.38727 4.23098 -9.04365 -11.6724
158 53 2 1.65383 3.03805 0.418211 -3.59595 -12.019 11.1971
157 53 1 2.04601 2.14106 0.753046 -0.811397 16.4332 -21.4569
159 53 2 1.99153 1.51655 -0.0554915 -2.12245 -5.23857 2.38359
253 85 1 6.84083 2.10574 2.5305 7.89244 12.4219 24.3066
255 85 2 6.44142 3.05414 2.54745 -0.352242 -8.90847 -2.46362
209 70 2 0.486624 5.30675 3.09717 19.309 16.5481 7.45996
208 70 1 1.38946 5.70559 2.77805 -9.47046 -10.2307 -28.3971
224 75 2 -0.165004 -0.17241 3.3637 -7.29034 -3.93462 3.77649
599 200 2 -2.62388 -4.56287 3.25364 3.69054 0.551619 1.73777
600 200 2 -2.96441 -5.4823 4.5611 -10.6603 4.88398 14.0304
598 200 1 -2.21476 -5.2443 3.90138 26.8896 4.02449 -22.1943
238 80 1 -0.204492 -1.86908 6.55275 5.93881 5.53699 -2.21558
245 82 2 -1.65322 -5.00112 7.34889 2.71369 12.0945 -3.0475
261 87 2 -1.77176 -0.895294 8.23744 -3.12762 -2.26244 -16.2127
259 87 1 -2.44727 -0.943178 8.99236 5.39498 -2.21598 0.0337379
23 8 2 -4.23699 -6.49538 5.73818 3.99599 9.28358 -1.04723
527 176 2 -0.508767 -4.89963 4.40759 29.9218 -9.95516 -2.5213
24 8 2 -4.68546 -5.57228 4.42517 -6.29283 4.9469 -2.90932
244 82 1 -1.00945 -4.3531 7.81569 -17.2163 -27.2572 32.1629
22 8 1 -4.26445 -5.51211 5.36789 -16.8824 -2.4288 10.6732
398 133 2 -4.67381 -0.78532 6.32948 -14.9601 0.726354 -7.50683
397 133 1 -4.82375 -0.810273 7.34178 5.75179 -2.57879 12.2233
399 133 2 -3.93277 -1.07211 7.75184 9.75747 0.907877 13.4736
93 31 2 -0.451957 -0.339934 6.74554 -23.9367 32.4329 24.345
550 184 1 -5.56723 -0.575391 4.82962 10.0778 -36.2355 -6.33364
106 36 1 -5.74501 -3.65742 7.58885 10.833 -3.63874 -20.889
107 36 2 -5.42583 -4.19151 6.76227 -3.09273 6.35056 13.8402
108 36 2 -5.16653 -2.82004 7.7112 -7.39621 -4.8806 1.79465
389 130 2 -7.15203 -1.62876 7.2537 15.51 -0.692237 4.24538
411 137 2 -2.09012 -6.90941 3.34155 0.54524 -15.5152 -2.51563
239 80 2 -0.344659 -2.89099 6.71397 2.26041 15.1789 -7.11598
246 82 2 -1.22788 -4.49539 8.8468 6.38854 20.5879 -27.1748
252 84 2 -7.16979 -5.84697 8.65817 -5.85547 -10.1512 4.69613
512 171 2 6.05799 -2.57544 5.11436 -0.694852 4.76662 -27.9583
511 171 1 6.20923 -2.28295 4.1167 -16.0535 -15.8593 30.5089
95 32 2 0.917836 -3.34903 3.77968 -4.86197 5.10062 7.14216
96 32 2 1.85144 -1.94686 4.07167 -1.37684 -8.27783 -3.4417
94 32 1 0.935075 -2.31103 3.76457 8.48355 19.5096 0.888433
513 171 2 7.06153 -1.7716 4.18016 28.7899 13.9809 -4.82099
240 80 2 0.250933 -1.55448 5.67727 -5.56751 -28.4234 4.3684
528 176 2 1.07433 -5.69795 4.52621 -9.65943 -11.0029 10.2979
526 176 1 0.539055 -4.8558 4.26031 -21.2369 11.1275 -12.5623
303 101 2 0.0679427 -5.68475 7.80249 8.56735 2.10687 -1.99132
415 139 1 5.3473 -6.48284 4.0273 3.66419 -2.51642 1.38757
416 139 2 4.65944 -5.72083 4.17956 -4.84514 1.54335 3.54501
100 34 1 3.63552 -1.75446 4.6611 -30.9973 9.68454 18.5692
101 34 2 3.84027 -1.06991 5.41139 2.04766 -5.45374 -9.39771
102 34 2 4.43261 -1.81815 4.04424 16.9257 0.120252 -5.21994
390 130 2 5.94333 -2.45236 7.71239 4.79849 7.32689 -12.0596
110 37 2 3.56872 -3.44623 4.4609 5.91423 -9.24442 -2.71976
111 37 2 2.6987 -4.69522 3.80409 13.4387 1.1908 6.36599
109 37 1 3.64402 -4.42528 4.1161 -20.7601 5.92866 -1.42371
388 130 1 6.28706 -1.60073 7.2064 -12.0444 -8.23273 3.7639
207 69 2 5.53069 -0.343942 6.66642 -7.41328 4.45128 -6.51974
78 26 2 6.11007 -5.1974 6.5353 -5.99606 21.639 11.8142
77 26 2 6.16329 -6.44311 5.47699 -4.54078 9.7692 5.63492
76 26 1 6.29665 -6.17933 6.47205 10.3928 -22.1601 -14.3239
302 101 2 1.10314 -6.84299 8.48817 -7.10853 9.91318 -16.84
301 101 1 0.890011 -6.28451 7.63865 8.37942 -13.7031 14.6636
461 154 2 1.54659 -6.83679 6.1336 -1.93796 3.30782 -14.1745
460 154 1 1.7698 -7.07804 5.13687 14.5487 -25.7984 19.5512
498 166 2 2.23309 -1.90565 8.44636 4.59091 -10.8545 -6.48344
496 166 1 2.69757 -2.71187 8.00403 -15.8311 -5.0983 -0.338621
497 166 2 1.9932 -3.3848 7.64953 10.8153 13.1001 6.92098
250 84 1 6.88716 -5.55728 9.55765 -4.68382 10.7626 12.0442
113 38 2 4.18243 -3.56442 7.80257 6.42456 -6.13364 7.26928
114 38 2 5.29822 -4.62209 8.65315 -1.27023 9.86911 -11.2599
112 38 1 5.15738 -3.9209 7.89839 -6.40318 -1.12098 5.63774
32 11 2 -5.57672 5.61603 3.41611 -11.3505 3.72806 4.8709
33 11 2 -6.08848 5.21082 5.01351 -10.5602 1.91655 -7.81473
485 162 2 -3.85428 4.24281 4.41838 -6.30569 1.14291 -1.14131
484 162 1 -3.10662 3.55954 4.27192 -0.812554 -0.616045 -7.5199
486 162 2 -3.51205 2.68981 3.85254 6.31695 1.80217 6.98312
31 11 1 -5.31429 5.29749 4.35853 10.6565 -14.7492 -5.90565
92 31 2 -1.01825 1.17286 6.25983 2.57288 7.94728 5.13483
64 22 1 -3.52535 1.18818 3.27361 -6.61695 -3.50047 14.885
374 125 2 -5.14264 0.480264 8.52367 -0.956217 -10.793 0.524337
552 184 2 -4.8857 0.0254084 4.43188 26.8851 13.9428 -17.8107
91 31 1 -0.859366 0.594101 7.10217 20.3564 -35.44 -14.1915
551 184 2 -6.34017 0.0220103 4.96361 -34.2249 26.9686 8.86375
183 61 2 -1.69946 2.79572 4.86464 -4.49419 11.6711 2.2731
181 61 1 -0.793119 2.36759 5.09341 1.34427 -13.638 -6.14088
155 52 2 -5.49886 6.78992 7.54684 5.0765 0.575087 -1.29419
71 24 2 -2.53682 1.68525 8.50091 -2.67344 3.55195 11.0955
149 50 2 -0.468025 5.31757 8.08966 -7.59562 11.3938 10.5088
148 50 1 -0.884589 5.88073 8.87628 1.46668 -14.094 -5.16693
562 188 1 -3.83847 6.52893 6.04466 13.2645 2.3833 23.1497
564 188 2 -4.32536 5.85737 5.4329 -2.19465 0.0172663 -8.4339
150 50 2 -1.84835 5.54646 9.07667 1.56983 -8.54878 -13.3727
563 188 2 -2.83785 6.33689 6.09664 -1.55884 -5.52781 -0.481757
70 24 1 -2.87467 2.18859 9.33721 19.0379 2.83763 3.76456
168 56 2 -3.31504 3.76668 9.11586 -1.73347 20.6638 -1.02408