ITEM: TIMESTEP
30000
ITEM: NUMBER OF ATOMS
648
ITEM: BOX BOUNDS pp pp pp
-7.1901129120643361e+00 7.1901129120643361e+00
-7.1901129120643361e+00 7.1901129120643361e+00
-1.5978028693476585e+01 1.5978028693476585e+01
ITEM: ATOMS id mol type x y z fx fy fz
520 174 1 -2.03992 -3.65328 -13.7553 18.4269 6.39125 -27.2732
522 174 2 -2.66268 -3.28989 -14.5093 6.98761 -8.10225 12.0745
322 108 1 -4.52593 -1.04248 -15.0088 -10.4643 -12.8401 -1.17337
432 144 2 -1.063 -1.8388 -11.2526 9.3119 6.90382 -3.39047
431 144 2 -1.8253 -3.13983 -12.0219 -0.828759 3.83019 -9.4855
477 159 2 -3.85588 -5.56195 -12.0065 -4.53165 -4.7558 9.64771
324 108 2 -4.55716 -1.4487 -14.0681 -2.33186 -3.25609 10.2717
323 108 2 -5.45203 -1.22068 -15.4112 3.97288 7.97681 0.554639
58 20 1 -4.5611 -0.278051 -9.63662 -15.1351 -23.4563 -4.18677
476 159 2 -3.16088 -4.86199 -13.3535 9.80778 9.26 3.91819
475 159 1 -4.04049 -5.21035 -12.9595 -8.19231 -1.44103 -4.93359
430 144 1 -1.8571 -2.47623 -11.2434 -4.04934 -0.956315 12.8351
384 128 2 -3.18314 -7.0406 -10.3193 -5.00311 9.8195 9.59436
307 103 1 -1.83864 -6.94248 -14.6332 -4.38256 -20.8722 -2.76934
308 103 2 -1.59018 -5.98837 -14.4722 5.19371 20.5441 -1.98007
521 174 2 -1.08143 -3.6193 -14.1969 -15.8922 -8.44028 11.6014
382 128 1 -3.81511 -6.2562 -10.558 15.6596 -16.7264 -23.8641
383 128 2 -4.37874 -5.80865 -9.85498 -4.8444 2.97866 19.2925
59 20 2 -4.87056 -0.0788411 -10.6006 -1.28928 3.66473 4.37838
616 206 1 -5.12207 -2.7515 -13.0245 7.8381 -23.6396 19.8302
617 206 2 -5.16927 -2.70394 -11.9976 -8.14003 9.63819 -4.64699
618 206 2 -4.7737 -3.73767 -13.0578 -3.94051 10.4823 -9.60628
222 74 2 -6.66108 -2.5973 -13.9144 8.16661 -1.7419 11.9765
266 89 2 -3.15145 -0.146454 -11.779 -1.15365 -11.7139 2.68765
534 178 2 -4.28497 -3.45401 -10.0967 -10.3499 -7.37874 -3.45324
532 178 1 -5.27342 -3.72839 -10.2325 26.461 0.805212 -7.36965
377 126 2 -0.549473 -5.67486 -10.1699 -0.830278 -8.94743 -1.94293
309 103 2 -2.62765 -7.02824 -15.2788 1.98476 2.22172 0.750396
630 210 2 -4.55546 -5.02842 -15.5898 0.304879 4.75877 -15.8714
629 210 2 -4.5355 -5.87214 -14.3331 2.34241 -6.76377 26.0688
628 210 1 -4.74295 -5.99123 -15.3192 -5.37024 20.1562 -21.1724
392 131 2 -4.00397 -2.48344 -15.5857 6.49144 8.0518 -9.11312
619 207 1 0.326834 -0.346036 -11.1493 23.5119 11.1827 -14.2097
394 132 1 0.407638 -4.02279 -14.869 -5.27758 -0.794048 -0.81343
459 153 2 5.07988 -4.15018 -13.652 8.17424 -5.33717 2.5491
9 3 2 2.54357 -1.60286 -13.4316 2.12824 8.46642 17.5128
334 112 1 1.3517 -5.04575 -12.4049 11.2613 -6.11794 31.0259
620 207 2 1.28778 -0.460934 -11.5722 -26.253 -6.65005 9.31554
8 3 2 3.54058 -0.509731 -12.6908 0.15752 1.60638 11.877
7 3 1 2.76541 -1.17108 -12.5149 -9.31772 -10.5344 -21.14
336 112 2 2.00447 -4.77744 -11.61 -12.7484 -2.78143 -28.8213
335 112 2 0.896982 -4.22732 -12.798 3.40422 1.58686 -6.62869
457 153 1 4.20129 -3.75043 -13.9494 -13.4953 9.27215 3.80519
90 30 2 3.00932 -3.01128 -11.0825 -6.62724 -10.4104 12.1761
637 213 1 6.26645 -6.11866 -13.0797 -25.7558 -5.93143 -22.1527
470 157 2 0.690271 -6.55075 -12.7474 -10.0935 -0.269857 -4.92208
639 213 2 7.11011 -6.35945 -13.5797 12.4232 3.48951 8.2226
220 74 1 6.94104 -2.39429 -14.5351 1.77084 22.4734 -25.0587
395 132 2 1.09054 -4.63416 -15.3417 -2.64223 4.64376 8.12686
221 74 2 6.91592 -1.35475 -14.73 -5.66474 -23.2581 12.62
638 213 2 6.32583 -5.83742 -12.105 11.0635 1.88379 11.504
396 132 2 0.651879 -3.02951 -14.9723 6.88729 1.86079 -5.52853
456 152 2 2.26281 -2.15261 -15.7297 5.59605 5.92319 -12.927
454 152 1 1.50439 -1.53329 -15.4296 -17.5023 -1.44145 2.88571
626 209 2 5.60636 -6.73797 -10.2274 -22.8725 -18.3788 -5.62733
570 190 2 7.17682 -4.57271 -10.4754 -0.101318 -2.24056 5.48564
568 190 1 6.49769 -5.3205 -10.2886 10.8849 -8.57682 -17.6339
88 30 1 2.92944 -3.93338 -10.6025 17.1736 3.03263 -12.5347
89 30 2 2.31738 -4.02768 -9.80309 -14.136 17.7627 9.80872
458 153 2 3.65013 -4.40809 -14.5342 5.16579 -5.53358 12.0237
356 119 2 3.52671 -6.35931 -15.6065 -8.5972 3.95971 10.7756
357 119 2 2.89743 -6.33896 -14.0729 -4.32734 1.96016 1.95364
355 119 1 2.89967 -5.8471 -14.9657 6.74737 -0.302301 -19.356
360 120 2 3.92317 -2.86399 -15.3036 7.38392 -8.04122 -8.2069
480 160 2 -5.6653 5.94663 -11.9095 6.51344 5.07842 5.16234
471 157 2 -0.563904 6.86876 -13.5335 -2.19421 14.1897 -13.53
249 83 2 -0.938585 6.49807 -11.3823 -6.86252 4.86748 11.5168
247 83 1 -1.58735 6.28025 -10.5899 12.9702 17.0433 -19.5992
478 160 1 -6.15529 6.01747 -11.015 -14.0584 -18.631 -13.2879
176 59 2 -6.94459 0.167674 -12.8767 -3.57154 0.763862 5.94682
177 59 2 -6.99403 0.322378 -11.1577 -6.90435 -0.72301 -11.7516
175 59 1 -6.40515 0.218007 -12.0055 11.6154 -2.18958 7.21074
265 89 1 -2.47411 0.594515 -11.8526 4.26466 8.26675 -1.23006
267 89 2 -1.5948 0.389722 -11.3833 3.78348 -9.97935 4.51657
133 45 1 -5.02869 2.40866 -9.59075 19.8655 2.85007 -5.77767
385 129 1 -6.07117 3.42703 -15.6532 22.2691 5.09402 15.9353
386 129 2 -5.87455 4.44355 -15.469 -0.0514926 -12.5884 -7.40682
387 129 2 -5.1301 2.98563 -15.6353 -19.2652 0.859824 -8.91525
169 57 1 -3.54678 5.78782 -12.7484 -16.4782 21.0119 -18.6873
163 55 1 -5.18357 5.87303 -15.125 1.24692 -19.8527 31.506
171 57 2 -2.97302 6.51229 -12.3039 -1.45765 -10.1179 0.323051
165 55 2 -4.65921 5.75348 -14.2177 -7.80141 8.77907 -25.7041
164 55 2 -5.31845 6.88027 -15.3377 12.9537 -2.30889 0.76449
465 155 2 -0.133338 3.32509 -14.0282 9.18585 -13.8048 5.35195
170 57 2 -3.53538 4.89448 -12.2811 7.29134 -18.6022 16.5272
345 115 2 -2.36223 2.10472 -14.6196 3.74811 -6.52681 10.9495
464 155 2 -0.240181 4.3707 -15.1531 23.9249 -6.97762 -8.48798
248 83 2 -1.51612 5.28146 -10.481 -4.61319 -18.5522 8.73418
339 113 2 -4.01252 0.458317 -15.4 -4.75404 -19.3825 5.42032
648 216 2 -3.05029 2.7758 -12.2032 1.29977 -18.3641 -8.20965
647 216 2 -4.08405 2.80589 -10.7914 -1.61788 -4.64028 -13.0293
646 216 1 -3.40194 3.29952 -11.4074 -7.93885 23.2756 -6.09635
645 215 2 -2.41471 3.26741 -10.1315 -17.2296 -4.45023 -30.074
227 76 2 -2.08089 3.95375 -15.2289 -6.03913 -6.63801 15.8662
479 160 2 -5.74545 6.69907 -10.4004 8.84049 11.4176 4.47926
99 33 2 -0.252982 2.56729 -9.7646 -17.0246 5.37979 16.9316
344 115 2 -1.64035 1.5303 -13.1798 -9.64321 -5.07276 1.90258
343 115 1 -1.87109 2.35394 -13.7446 1.43725 20.4377 -23.3331
621 207 2 0.302686 0.661211 -10.8912 3.32518 -6.6648 2.12941
469 157 1 0.0683994 6.9901 -12.7383 8.79191 -19.1842 24.0582
128 43 2 5.87728 0.0959368 -15.327 1.09209 7.89668 -1.2626
127 43 1 6.78204 0.254017 -14.8466 10.705 10.9508 -1.3015
129 43 2 7.17003 1.20238 -15.0229 -9.49325 -17.117 -0.986642
627 209 2 5.53038 6.03989 -10.6623 -29.3611 16.3448 7.79484
146 49 2 4.68561 1.72961 -12.4974 -3.06947 -8.11068 4.58968
199 67 1 4.58585 6.33689 -14.7103 5.18423 10.9749 5.31068
463 155 1 0.488531 3.80556 -14.6794 -30.3251 15.0111 6.20087
141 47 2 6.71207 3.62443 -15.6696 17.6121 -6.33641 0.0432468
79 27 1 6.18063 0.566565 -9.95096 3.91896 20.2957 14.0085
35 12 2 6.15467 3.61507 -10.6083 -1.74753 2.84703 -4.99771
34 12 1 6.0245 4.45133 -11.1779 33.9248 13.2305 -1.39472
36 12 2 6.95757 4.96928 -11.229 -29.1158 -14.5407 3.40532
624 208 2 3.04282 6.5845 -10.0888 8.24938 4.06856 -12.2667
241 81 1 3.7279 3.59308 -13.1459 15.229 1.74868 7.00846
243 81 2 4.4738 4.17533 -12.7493 -0.982409 -4.49378 -1.22027
242 81 2 2.86599 3.96875 -12.7469 -8.87998 -2.82495 4.54042
120 40 2 1.1166 5.23012 -12.3728 8.43864 -18.5052 5.15881
625 209 1 4.93073 6.82503 -10.2759 44.8729 -0.323836 1.30569
246 82 2 2.18468 2.57798 -15.8004 -22.492 13.4217 4.17676
119 40 2 1.50936 5.43227 -10.9183 14.8974 -3.26131 11.8751
551 184 2 3.00457 5.96048 -15.3108 -4.49293 -4.40757 -8.25854
118 40 1 1.55661 4.67114 -11.6124 -25.0111 23.4886 -20.9979
245 82 2 3.24033 2.29987 -14.4816 -10.5037 13.553 8.17392
244 82 1 3.05801 2.21411 -15.4806 29.5704 -20.7904 -8.30209
145 49 1 4.67251 0.744168 -12.2077 -0.379977 10.3632 -5.50295
622 208 1 2.03909 6.69289 -9.9267 2.36294 -3.41773 20.4765
98 33 2 0.805114 3.21672 -10.8066 5.251 -13.0326 -3.06429
200 67 2 5.07201 7.04927 -14.1594 -2.02857 4.58947 4.57736
97 33 1 0.42735 2.31873 -10.4484 9.73368 7.14219 -17.6408
147 49 2 5.08496 0.618434 -11.2676 3.26771 1.15011 -5.57552
201 67 2 5.28258 5.60912 -14.8492 -2.13129 -15.221 -9.33425
139 47 1 5.71474 3.84709 -15.6125 -18.0484 16.3858 -3.1386
140 47 2 5.21289 3.23919 -14.9755 -4.80927 -3.41287 1.79459
552 184 2 1.71829 4.98567 -15.0618 -3.96863 3.42901 -20.3246
550 184 1 2.10082 5.67777 -15.7406 16.6412 2.78615 22.098
60 20 2 -5.15553 -1.0884 -9.34837 10.0002 15.5228 0.458404
83 28 2 -2.08877 -2.74458 -9.45241 -18.4266 -8.41797 4.49308
82 28 1 -2.60602 -3.34975 -8.76994 27.4402 22.6984 -28.0173
84 28 2 -2.03329 -4.18483 -8.77711 9.60587 -19.466 -1.73239
533 178 2 -5.71168 -3.52303 -9.32865 -10.9154 8.82542 2.15588
610 204 1 -4.17294 -3.24417 -6.88578 21.4247 11.2659 42.2886
612 204 2 -3.60997 -3.19177 -6.0226 -19.8829 -4.11027 -8.23932
611 204 2 -3.41009 -3.31787 -7.60652 -14.3575 3.19583 -12.0654
350 117 2 -4.61903 -6.44754 -6.82834 2.52872 -10.8868 -9.60961
10 4 1 -5.72068 -5.23739 -7.40887 13.4375 -5.06162 -11.7865
11 4 2 -5.16508 -4.34079 -7.45352 -13.7354 -13.8931 13.6474
12 4 2 -6.6158 -5.1266 -6.94546 -7.36106 6.96342 2.00819
208 70 1 -6.45367 -2.30635 -5.03188 11.0809 -4.48069 3.46862
209 70 2 -6.07765 -3.24358 -5.01297 9.71523 -13.2911 -12.0933
306 102 2 -1.04235 -6.04479 -5.92745 -2.98597 -1.84627 1.23348
305 102 2 -0.863055 -5.17531 -4.46473 1.67312 -9.27229 4.03806
304 102 1 -1.50868 -5.48606 -5.21587 -20.4783 6.49005 -21.326
376 126 1 -0.776774 -5.34911 -9.23286 2.3598 25.5953 -6.66773
523 175 1 -6.44721 -2.28837 -8.3811 12.8434 16.8817 27.9233
87 29 2 -6.71112 -0.812516 -5.60341 -0.875562 -11.1848 1.9678
370 124 1 -6.35035 -5.19171 -4.26765 -25.0135 2.72765 -11.5074
598 200 1 -0.0446934 -5.04593 -3.22997 19.8123 4.02208 5.71354
412 138 1 -0.049882 -1.70013 -6.69104 -40.1424 -9.32329 -29.5639
210 70 2 -6.9673 -2.31832 -4.1683 -17.9843 11.9798 18.7206
378 126 2 -0.973945 -6.11625 -8.58258 0.0597548 -13.297 2.64984
361 121 1 -1.96735 -0.409309 -8.54682 -6.57924 14.6275 0.644957
362 121 2 -1.88817 -1.14444 -7.85211 5.60481 -5.75212 2.15622
363 121 2 -2.87651 -0.47511 -9.02306 -1.81604 -0.562863 -2.14551
525 175 2 -6.01052 -1.9457 -7.49654 -6.87977 -14.5039 -18.6135
39 13 2 -5.46294 -1.11862 -3.50443 -1.37303 7.88538 -2.75727
37 13 1 -4.78891 -0.357985 -3.39124 -21.1707 -6.21839 -3.03895
38 13 2 -3.88012 -0.759328 -3.50975 24.8758 1.48029 1.30487
180 60 2 -4.64178 -4.85296 -4.10817 -19.9769 -7.51426 -2.05597
371 124 2 -6.77071 -5.5618 -3.42417 3.883 -7.22758 14.6681
179 60 2 -3.01449 -4.89244 -4.4529 3.76461 -4.54914 -0.290339
178 60 1 -3.74707 -4.42875 -3.89723 20.052 16.5236 -3.33873
20 7 2 -0.956199 -1.61726 -3.71739 -2.0303 1.34966 -5.99
19 7 1 -1.9693 -1.5582 -3.61764 -7.81696 -4.56903 7.97207
21 7 2 -2.48833 -1.80046 -4.46239 11.0986 0.518477 1.47422
413 138 2 0.195434 -2.13913 -5.7762 13.9546 4.08423 -4.14883
153 51 2 5.18582 -4.78197 -6.78766 19.5679 -0.69888 3.08748
151 51 1 5.79654 -4.77771 -5.94309 -8.19035 1.38267 -12.2335
122 41 2 0.38575 -4.13961 -8.86304 -0.886528 -2.8375 7.21198
503 168 2 0.446919 -3.64396 -4.17672 2.08168 -0.539126 6.4145
504 168 2 1.41841 -2.23775 -4.18177 6.37816 8.62729 10.821
502 168 1 0.861201 -2.89431 -4.74992 -2.75599 -26.523 18.3394
372 124 2 7.16749 -5.12007 -4.85115 15.0748 2.67582 -5.18466
414 138 2 0.260442 -0.735101 -6.84254 14.3017 6.3898 3.77556
569 190 2 5.86091 -5.06439 -9.51323 2.05804 8.70287 3.29509
123 41 2 0.569529 -2.85219 -7.83029 3.83843 2.20955 3.19353
152 51 2 5.14241 -4.45125 -5.1884 12.2876 -7.8831 0.1688
121 41 1 1.07665 -3.63322 -8.28377 2.97156 0.189305 -10.1944
473 158 2 2.01066 -6.45246 -7.28368 7.1698 3.49008 7.33337
634 212 1 4.16509 -4.21601 -4.09393 4.43553 16.844 37.136
33 11 2 4.51877 -1.39752 -7.51775 7.85356 6.56861 13.3031
636 212 2 3.42358 -4.35623 -4.7531 -20.0662 -6.96274 -14.4542
379 127 1 4.71049 -4.72591 -8.52412 -25.679 -38.1103 12.6936
380 127 2 4.09672 -5.54101 -8.71628 20.8597 6.80936 8.26487
198 66 2 4.78848 -2.21736 -4.69179 -2.34399 4.21578 -0.0624459
196 66 1 4.7404 -1.31068 -5.16289 -8.71536 -5.3141 2.96089
197 66 2 5.67644 -0.972081 -5.38638 5.13496 4.83239 -1.28601
555 185 2 1.70809 -4.27713 -5.43172 -5.55651 4.28313 2.77453
553 185 1 2.21141 -4.81424 -6.1409 10.5306 -7.98193 13.9645
554 185 2 2.01605 -4.27055 -6.97752 -5.46645 6.17913 -18.7487
381 127 2 4.18049 -4.04912 -9.03086 -3.85494 30.4499 -15.7952
85 29 1 7.10732 -0.0558436 -6.01841 -4.55962 11.7313 -10.0081
524 175 2 6.92297 -2.17594 -8.27539 -8.56074 1.17784 -4.09631
235 79 1 2.54417 -7.0342 -3.89288 -5.19582 -3.42495 -20.9538
236 79 2 2.56002 -6.6761 -4.84481 1.46497 14.1905 1.50007
32 11 2 6.15916 -0.686411 -7.3989 -25.9299 -7.32341 6.88533
31 11 1 5.4157 -1.17701 -7.95466 19.5117 5.50296 -15.7534
135 45 2 -5.76118 2.74836 -8.99547 -26.4468 -2.85273 9.62264
134 45 2 -4.75985 1.46708 -9.29243 -3.51864 -13.0991 -3.48197
644 215 2 -2.73296 4.23494 -8.79955 -7.85558 7.47384 -7.3468
643 215 1 -2.01133 3.73779 -9.33838 41.3903 12.4298 46.1955
349 117 1 -3.95388 7.12856 -6.76967 4.07874 14.2264 5.70354
556 186 1 -1.26416 7.00304 -7.61591 -2.99434 2.56117 3.95653
558 186 2 -2.28962 7.05924 -7.48829 2.93808 1.06959 11.0914
557 186 2 -1.08447 6.28424 -8.31047 1.20861 -5.14565 -5.51165
86 29 2 -6.7948 0.811008 -5.78054 3.27022 3.48541 0.903761
260 87 2 -4.18451 6.724 -4.99959 13.7428 6.22488 -18.4836
116 39 2 -6.91597 5.43582 -4.83824 -4.30593 5.58152 2.04546
351 117 2 -4.19115 6.35094 -7.38569 -9.51225 -4.01627 -3.16281
365 122 2 -4.44662 3.9122 -9.0997 -6.32886 9.32078 9.71499
299 100 2 -5.30684 3.6998 -5.39671 -1.50559 11.1898 -12.4152
300 100 2 -4.95377 5.27079 -5.09084 -0.913288 -4.173 -5.93893
366 122 2 -4.94696 4.44521 -7.55694 6.42003 7.05759 0.894152
364 122 1 -4.3254 4.64203 -8.36416 0.696117 -1.16013 -1.52368
298 100 1 -5.37292 4.6473 -5.81868 -2.39345 -27.6284 4.30983
369 123 2 -4.03161 2.1138 -6.52458 5.16729 -11.3979 22.5621
368 123 2 -4.53382 1.37723 -5.00075 19.0977 -4.31659 8.85903
367 123 1 -4.78899 1.77993 -5.89393 -30.9677 14.7759 -24.6311
115 39 1 -7.05451 5.52883 -3.82698 -0.277043 -10.9567 -3.03714
259 87 1 -4.29649 6.23667 -4.11592 -11.4748 21.1991 23.1723
418 140 1 -2.35538 1.46193 -4.32899 11.8781 -12.3811 8.94574
420 140 2 -2.19475 1.61308 -5.31762 -3.25386 6.80376 -10.8651
561 187 2 -2.55116 1.34686 -7.76029 7.92908 -8.2852 1.30647
559 187 1 -2.44289 2.17925 -7.17824 -9.40402 -2.50402 -1.72606
560 187 2 -2.37337 2.96819 -7.83026 10.354 -2.19288 1.93212
284 95 2 -0.00514053 0.658848 -7.87658 1.20464 3.54573 -11.4674
419 140 2 -1.3899 1.28168 -3.92282 -22.6162 12.7718 -5.02081
261 87 2 -4.99052 6.8135 -3.60453 11.9518 -12.9799 1.09819
81 27 2 6.46643 1.34132 -9.31244 5.15177 1.43923 -12.9778
80 27 2 5.70509 0.0238431 -9.23499 -8.78359 -24.8622 -1.09544
318 106 2 3.62286 2.59407 -9.14247 1.89293 11.6974 7.11152
317 106 2 2.95405 2.68087 -7.47308 12.3927 1.18199 -28.9712
316 106 1 3.04432 2.21055 -8.40358 -15.0864 -12.955 24.1945
623 208 2 1.95861 6.64092 -8.90352 -7.69172 1.17418 -3.3091
538 180 1 6.81344 2.54001 -8.31392 12.4947 15.1795 22.2482
472 158 1 1.70185 6.97365 -7.09689 -32.9129 7.23218 -1.46793
258 86 2 1.94165 1.03143 -5.92005 3.85632 4.38151 -0.559641
256 86 1 2.74424 1.33185 -5.34481 0.648777 -10.7162 -0.789685
257 86 2 3.50671 0.663895 -5.52887 -4.81625 4.11156 3.77611
117 39 2 6.79069 6.31828 -3.48232 -7.24003 10.1444 -3.94126
237 79 2 2.44972 6.35215 -4.10574 -0.656744 -12.8889 19.6679
474 158 2 0.713935 7.09976 -6.79508 16.0451 -10.048 -8.17458
283 95 1 0.922445 0.597291 -7.45728 2.90797 2.35837 16.1682
15 5 2 4.51641 4.66184 -7.40194 -9.48154 17.4864 -5.78724
602 201 2 0.838331 0.933848 -3.68819 17.7388 -13.3712 -9.07368
539 180 2 7.08031 2.63022 -7.31765 -4.51663 -9.99834 -14.786
285 95 2 1.68141 0.954046 -8.05471 -2.85993 5.73918 -6.73958
540 180 2 6.36277 3.44192 -8.49325 -10.4313 6.41995 -0.247807
601 201 1 0.0404954 1.47449 -3.42858 0.779463 13.5712 23.017
229 77 1 2.00311 4.66084 -3.68224 -6.9971 19.688 -20.7994
68 23 2 2.1702 5.23415 -6.79468 4.02848 10.572 -2.57844
67 23 1 2.96298 4.65767 -6.5043 1.93959 -21.7814 16.2011
69 23 2 2.81678 4.37646 -5.5201 3.60545 4.4961 -11.404
13 5 1 5.23204 4.91381 -8.10363 22.3681 -15.0221 -6.09486
14 5 2 5.13627 5.77642 -8.66072 -12.3028 -5.77034 8.92385
231 77 2 1.04293 4.48549 -3.9786 0.0937927 -7.1691 6.03832
531 177 2 3.06387 1.36267 -3.55363 3.94979 6.35059 -3.35796
230 77 2 2.46371 3.87295 -3.27077 5.60146 -17.0261 11.0636
354 118 2 -3.79003 -2.00415 -1.08895 16.1217 8.20073 9.92044
600 200 2 -0.0109966 -6.03875 -2.93532 -3.03484 -3.78352 -3.43703
501 167 2 -2.9243 -4.14424 -2.30771 4.3053 -13.0632 16.6988
301 101 1 -0.898501 -4.69473 2.21344 -1.14704 9.954 40.3124
94 32 1 -3.8027 -5.2081 1.91595 36.8163 7.87073 -1.34048
499 167 1 -2.65259 -4.60876 -1.40836 -2.61287 1.98882 -21.6313
500 167 2 -3.17753 -5.51156 -1.45172 7.18124 13.5704 7.16573
95 32 2 -2.81777 -5.05901 2.2678 -30.5398 -1.8415 -9.20215
96 32 2 -4.1067 -4.34852 1.44117 2.06135 -9.96671 6.82039
450 150 2 -6.6914 -1.35854 -1.94537 5.6643 4.0377 18.4233
303 101 2 -0.562005 -3.98245 2.9246 -5.44091 -15.1541 -26.1575
599 200 2 -0.217023 -4.58367 -2.35535 -6.15352 10.3631 15.3551
548 183 2 -6.21712 -3.11051 -0.481489 -12.4022 -4.78915 -12.8777
549 183 2 -5.95422 -2.10258 0.64773 5.63391 15.6735 10.3063
374 125 2 -5.21703 -5.29883 -1.29761 -5.25466 1.7377 1.76998
302 101 2 -0.738474 -4.34925 1.28262 5.98541 12.5663 -19.6272
92 31 2 -4.59734 -6.72666 1.88939 -1.66796 -3.97549 -21.3196
592 198 1 -1.35626 -6.8671 0.453651 -1.82941 -4.36567 -2.39111
594 198 2 -2.1105 -6.428 0.977551 -1.64436 2.79028 -6.25337
353 118 2 -2.28817 -1.57387 -1.70645 -8.33023 1.16277 1.43272
547 183 1 -6.01986 -2.11884 -0.368152 12.0825 -15.1261 4.75645
352 118 1 -2.82884 -1.70571 -0.839686 -9.66834 -1.14473 -12.3958
311 104 2 -1.2605 -3.70858 -0.622308 -8.05765 -15.7331 -5.22473
312 104 2 -0.906983 -2.28127 -0.146209 5.79278 0.780895 4.02828
310 104 1 -0.454018 -3.19259 -0.267379 -2.08576 7.27896 -1.78818
593 198 2 -0.605861 -7.05233 1.11134 4.55424 -3.61319 2.24778
373 125 1 -4.79782 -6.21934 -1.34193 -3.52903 -16.2887 10.3572
375 125 2 -5.03549 -6.76783 -0.49706 1.9196 5.80919 -11.0669
234 78 2 -4.55268 -0.601807 1.62636 6.23801 37.0046 5.23907
485 162 2 -6.36552 -1.51554 2.57023 -13.0402 0.622319 16.0883
486 162 2 -5.11415 -2.58294 3.01472 -7.1309 -3.66412 8.81258
484 162 1 -5.45234 -1.8968 2.33973 17.1269 -6.21992 -20.5074
635 212 2 3.83627 -4.47827 -3.12486 9.92036 -3.56435 -22.7799
490 164 1 2.0274 -1.24764 -3.06681 11.0697 -9.46665 24.5336
491 164 2 2.64708 -0.4506 -2.79012 -8.88026 -5.20943 -7.23866
492 164 2 2.19312 -1.99021 -2.33519 -1.15373 18.2818 -12.28
448 150 1 6.8415 -1.49734 -2.48768 -20.8363 -20.2076 -16.8159
280 94 1 6.81748 -4.54482 -0.695157 17.9871 9.73807 -7.84285
282 94 2 6.52769 -4.89992 0.227212 -12.3584 -2.65828 -1.16412
281 94 2 6.53976 -5.18995 -1.45733 -2.58385 -1.54111 13.7779
268 90 1 5.28949 -5.35944 1.56376 22.5915 4.3773 -18.3899
269 90 2 5.96352 -5.52944 2.34409 3.0769 8.23015 -11.6006
255 85 2 2.89563 -6.24491 -2.33209 1.03945 -5.88133 -19.5873
506 169 2 6.23403 -7.10672 -1.41772 -8.1523 -0.38891 5.58444
449 150 2 6.24117 -2.12998 -1.93253 9.14826 11.5938 -6.32352
507 169 2 5.20208 -6.34348 -2.62141 -10.1653 -3.85163 13.2535
270 90 2 4.40044 -5.56436 2.02995 -5.4997 -3.57204 4.54786
505 169 1 6.14452 -6.57833 -2.30033 19.7341 5.50519 -26.1745
253 85 1 3.49354 -5.53178 -1.90372 -0.00317445 15.6741 -10.8185
254 85 2 3.26588 -5.65184 -0.949943 -1.17093 -7.96785 40.2385
18 6 2 1.51032 -3.14312 -0.747348 0.923327 -3.79222 4.56283
17 6 2 2.94172 -3.90647 -1.27754 0.902265 -7.31293 0.386436
16 6 1 2.47672 -3.02253 -1.07592 -6.70117 12.8041 -5.21457
4 2 1 6.4302 -0.924483 3.19236 10.0482 12.3472 -7.36642
5 2 2 5.83659 -1.16769 2.40973 -12.6663 -9.19826 -6.32385
166 56 1 0.940163 -6.82068 2.61992 12.3881 -15.7287 -22.9325
168 56 2 0.537311 -5.91491 2.39936 -12.6929 10.7675 14.7505
398 133 2 1.42765 -6.88823 0.875587 15.0873 -10.4231 -21.6593
397 133 1 1.85908 -7.11626 -0.0561918 -33.9044 29.4819 18.9921
182 61 2 3.83034 -1.63741 -0.095522 -6.00865 -0.844797 8.0467
446 149 2 1.3572 -0.797468 2.38645 5.60291 -7.97196 4.10354
445 149 1 1.69521 -0.0858821 1.74765 -17.9287 -0.231506 1.91348
181 61 1 3.9344 -1.16703 0.809244 38.9076 -4.17136 -15.9304
183 61 2 3.04601 -1.00555 1.25191 -23.7938 8.88991 7.01354
93 31 2 -5.1238 6.49127 2.69419 -9.59199 -14.4056 -1.90754
91 31 1 -4.96236 6.69189 1.71335 10.3367 25.1423 22.7982
158 53 2 -2.7338 5.83859 1.75704 -6.15975 3.03156 -2.46392
54 18 2 -6.95652 6.32949 0.762947 22.8774 -8.26864 10.8635
287 96 2 -3.03675 5.65052 -3.17066 8.08657 -9.31686 6.64821
150 50 2 -3.36535 3.85521 2.65513 1.36526 7.81126 7.79973
286 96 1 -2.33336 5.1447 -2.58109 -17.5541 -8.40684 -4.30302
288 96 2 -1.54699 5.77667 -2.42024 8.78731 12.4226 -0.52371
149 50 2 -4.96473 3.57273 2.68491 6.17746 -6.80928 2.12649
232 78 1 -4.42416 0.421772 1.37309 -19.5199 -43.2581 -12.5108
233 78 2 -4.93868 0.444641 0.479311 7.89873 9.74187 -0.38195
340 114 1 -6.13542 4.48069 -1.60579 23.5295 -4.2372 26.0069
342 114 2 -6.40757 4.47569 -2.57482 -18.3627 4.97209 -21.6834
341 114 2 -5.13639 4.70255 -1.65441 -5.53696 -4.79942 8.88769
572 191 2 -7.09038 2.01242 2.8207 8.7092 7.29438 4.17782
274 92 1 -1.89433 1.11674 0.101496 8.17195 -16.6544 -3.78499
275 92 2 -2.11954 1.79273 -0.624316 -14.0025 11.793 -8.92879
276 92 2 -2.67505 0.453938 0.0988241 -1.47509 0.419599 6.06131
462 154 2 -6.46603 3.33158 0.260387 13.5652 -4.04444 15.2181
320 107 2 -1.46473 4.38828 -1.07702 -0.834716 4.75688 1.45919
319 107 1 -0.831398 4.33516 -0.274555 8.674 -8.83444 0.981731
460 154 1 -6.0271 2.96471 1.13065 -9.62845 4.25568 -8.68615
565 189 1 -0.703516 1.49079 2.3789 34.2548 -4.45517 -20.2382
567 189 2 -1.58133 1.57541 2.87167 -15.0937 0.461766 2.54
566 189 2 -0.855255 1.4848 1.32519 -16.59 -0.729199 30.1175
321 107 2 -0.0816612 3.66251 -0.478251 -6.56605 3.23599 3.76653
329 110 2 -2.79352 3.48499 -2.03403 -3.78753 5.61739 -9.45553
328 110 1 -3.16267 2.55978 -1.80695 6.98669 -5.5645 -7.25013
330 110 2 -3.34415 2.01447 -2.66974 6.40193 8.59867 8.9853
535 179 1 -0.303647 6.86428 -2.10309 4.36894 0.564606 12.4042
461 154 2 -5.43849 2.16307 0.878186 1.61545 3.15298 -0.768776
537 179 2 -0.657303 7.02598 -1.11996 10.5958 -2.62876 -18.056
30 10 2 -6.41537 1.77987 -1.54836 -2.94056 -3.11537 -5.73926
297 99 2 -0.123851 0.932057 -1.02582 5.72011 1.62238 15.3169
28 10 1 -5.66852 1.12733 -1.31355 6.87199 -10.6502 2.63749
29 10 2 -5.41142 0.64984 -2.20927 0.181241 6.45686 16.9488
157 53 1 -2.12941 5.12208 2.14051 8.69605 -6.27765 -2.65302
159 53 2 -1.44224 4.90591 1.39952 -4.35962 -2.94087 -1.22482
530 177 2 3.56509 1.90526 -1.95952 -4.69083 -7.79238 -17.1452
529 177 1 3.29281 1.10904 -2.58618 2.99868 1.91397 14.3727
278 93 2 6.26253 0.364137 -3.14826 12.1031 1.26264 6.41989
6 2 2 6.52088 0.100268 3.13774 -3.55815 -2.85592 6.6717
496 166 1 4.68461 1.69688 0.612171 17.0344 -10.5523 12.5069
52 18 1 6.93924 6.39907 -0.114033 -21.9258 12.7802 -26.9613
497 166 2 5.56041 1.61573 1.1435 -7.99574 6.25593 -1.49431
53 18 2 7.16856 5.73024 -0.873779 16.7738 -7.08599 16.8729
571 191 1 6.32966 1.9147 3.14038 -9.99422 -5.2869 -31.796
443 148 2 0.531856 3.90258 2.8988 -2.80436 14.8362 -7.11723
603 201 2 0.242877 1.81526 -2.45915 -2.53306 -5.67603 -14.8068
57 19 2 4.43195 5.08424 1.53258 7.93053 19.3619 -23.7626
56 19 2 5.55303 5.91539 0.436259 -5.40258 -0.220312 4.19497
55 19 1 4.57481 5.63069 0.635545 -25.1125 -18.2091 20.5778
277 93 1 6.53919 1.32924 -2.93074 -6.45391 -10.2991 -14.0035
498 166 2 4.19346 0.811788 0.749912 -3.52292 -4.42218 -2.31503
399 133 2 2.63203 6.67233 0.121665 29.9184 -22.4439 7.17546
279 93 2 5.67114 1.80358 -2.78177 -11.5691 14.3804 5.35575
536 179 2 0.688784 6.56958 -2.10876 -13.0052 4.29556 9.3269
333 111 2 3.72656 4.19056 -0.944759 15.4309 -9.46482 10.634
447 149 2 0.904562 0.552903 1.68008 0.724467 6.81742 0.970796
331 111 1 4.21061 3.36269 -1.32014 -17.5249 14.4753 -42.1953
296 99 2 1.29647 1.34378 -0.14572 10.3177 -10.0864 9.07904
332 111 2 4.67174 2.74529 -0.64716 -3.48064 -0.290141 25.0802
295 99 1 0.628997 1.61313 -0.847211 -9.52289 14.517 -18.9244
442 148 1 1.43137 3.46246 3.00281 -13.0217 -27.6779 7.25392
346 116 1 4.00919 4.15944 2.9478 13.5889 -1.98058 -0.908323
347 116 2 3.08103 3.72034 2.80875 -6.93946 9.41028 5.34715
348 116 2 4.70622 3.42825 2.86831 4.62148 -9.19022 -5.0154
326 109 2 -4.51016 -5.07514 4.72099 -6.95823 6.80674 -8.79656
325 109 1 -5.12992 -4.30057 4.38096 20.3646 2.44634 14.1744
192 64 2 -2.99353 -7.06522 4.99231 0.430395 -7.52477 0.764402
51 17 2 -6.32938 -5.08262 3.60535 1.1828 1.74957 -2.57656
327 109 2 -5.20353 -3.66386 5.17827 -8.0799 -1.20396 -3.84387
402 134 2 -3.72527 -4.78172 7.97278 -11.8638 -7.93918 15.994
579 193 2 -1.89112 -0.698522 8.64052 -0.477468 -14.6989 -2.34502
400 134 1 -4.65702 -4.80682 7.54772 13.8533 18.0458 -26.0448
401 134 2 -5.4849 -5.17781 8.03745 12.8076 0.367005 8.90315
606 202 2 -6.40225 -1.13038 8.13554 1.98765 -8.24062 -5.98866
240 80 2 -1.32974 -5.25712 7.2524 3.62772 2.40648 4.54468
213 71 2 -4.77238 -2.99485 7.58351 -0.657172 6.33195 16.9225
493 165 1 -1.29046 -1.19784 5.211 -5.5868 19.8497 -28.8294
494 165 2 -1.61003 -0.905077 6.14753 3.94706 -4.54886 7.5008
495 165 2 -1.79353 -0.654622 4.48395 6.39461 -11.8311 17.0312
577 193 1 -1.92414 -0.412458 7.65189 -1.09285 -4.80002 14.5384
112 38 1 -6.44942 -6.72213 6.55232 -7.58089 -3.61628 3.56663
101 34 2 -0.0377968 -2.09459 4.36626 -14.767 19.4401 15.2003
190 64 1 -3.42628 -6.18203 5.23188 10.5396 5.6354 -5.3801
191 64 2 -3.44696 -6.03885 6.23967 -9.32641 -0.433072 4.40316
314 105 2 -1.61254 -5.04774 4.87396 23.5881 -6.06598 13.2182
313 105 1 -0.650906 -4.88781 5.25622 -24.1585 7.67032 -2.3111
315 105 2 -0.221534 -5.66219 5.77375 -0.715012 -9.52446 -12.0459
238 80 1 -1.59522 -5.3028 8.23612 -20.1948 31.5675 -10.8462
239 80 2 -1.51741 -6.24986 8.56419 12.867 -25.0644 2.82191
211 71 1 -4.89042 -2.1778 8.21781 21.2016 22.5201 1.38411
596 199 2 -0.386785 -3.35745 8.32845 -1.48676 -3.08986 -4.48628
605 202 2 -7.17718 -1.08217 6.67085 -0.00594814 -1.91757 10.3071
604 202 1 -7.06042 -0.575827 7.57375 1.13268 -1.6019 -10.197
439 147 1 -6.59023 -5.41967 9.58134 -8.40731 -22.6393 -15.5257
389 130 2 -5.0426 -0.161789 6.81069 14.1096 -3.30351 3.93048
390 130 2 -3.26824 -0.195757 6.70123 -8.46618 -5.67061 16.1011
114 38 2 -6.01851 -7.15091 7.39933 -3.17589 4.94394 -15.693
441 147 2 -6.05246 -6.29751 9.44423 -6.01685 10.9073 7.27451
212 71 2 -3.97812 -1.75152 8.52456 -24.2985 -22.5464 -6.37096
50 17 2 6.65905 -4.97167 4.33272 -5.44619 -1.77498 -1.85581
49 17 1 7.06485 -5.37294 3.48275 -2.95401 -2.76593 12.4178
100 34 1 0.296879 -2.88935 3.84631 13.8086 -32.1922 -11.4911
102 34 2 0.0479796 -3.71735 4.44332 0.640525 9.64305 0.464649
615 205 2 1.99641 -3.46497 4.14453 4.52218 4.64853 4.202
26 9 2 1.63532 -2.2653 6.92915 9.12244 14.9217 5.12883
25 9 1 2.34694 -1.53323 6.71391 -22.1716 -3.53627 11.6119
27 9 2 3.01957 -1.98386 6.12529 14.3477 -15.9237 -15.3829
613 205 1 2.93744 -3.56132 4.55006 4.25263 -6.37864 -12.7009
575 192 2 6.42845 -3.12014 5.61095 -13.431 -26.9668 8.16016
576 192 2 6.75933 -1.86453 4.52463 -4.03556 -0.926148 -3.7652
291 97 2 3.52617 -5.12924 9.33872 5.79137 -8.48328 -0.894956
289 97 1 2.74299 -5.67758 8.9624 -10.4113 22.5367 -14.3617
513 171 2 6.95614 -5.37515 6.42967 -19.0485 12.2171 11.4862
511 171 1 6.19202 -4.65386 6.30096 15.2918 -18.9085 -25.2042
512 171 2 5.52154 -4.52668 7.05155 -1.53717 -5.30054 15.3513
527 176 2 2.86703 -6.63512 3.50889 -10.6536 1.81778 -9.54641
526 176 1 3.69439 -6.06173 3.37676 -30.501 2.38744 7.88718
528 176 2 4.35445 -6.52456 3.96933 23.1888 -10.805 17.1859
574 192 1 7.04847 -2.36781 5.37631 26.3495 43.5125 -2.23986
614 205 2 3.48117 -4.21668 3.9564 -8.47891 5.64037 12.1836
403 135 1 5.04286 -4.00562 8.90728 -6.49047 12.442 22.746
290 97 2 2.30684 -4.99641 8.31901 -1.03866 -9.95975 8.77812
65 22 2 2.86325 -0.0411876 6.11216 2.60847 -4.09301 6.4687
597 199 2 0.902736 -3.23899 9.31856 3.17473 2.45309 -11.9489
595 199 1 0.625509 -3.26029 8.31955 5.12405 -0.899167 18.0491
641 214 2 2.52306 -0.598184 8.56221 -0.0680791 -6.38445 -8.97731
62 21 2 5.88051 -6.8765 5.43996 0.783702 -0.959136 4.39227
417 139 2 2.88717 -6.87926 7.76301 2.71161 -23.8063 -6.80303
405 135 2 5.99217 -4.35128 8.94886 13.0603 -8.57808 -0.292099
148 50 1 -4.12981 3.58668 3.29826 -14.2644 5.92169 -17.458
155 52 2 -4.99017 5.85458 8.78887 -5.70858 -5.91462 10.1559
154 52 1 -4.64833 6.77548 8.51237 -9.88095 0.241648 -4.73571
113 38 2 -6.228 7.09502 5.7201 4.57952 -4.61029 5.6285
578 193 2 -1.95844 0.59109 7.74978 -2.42967 24.4653 -4.11406
545 182 2 -3.12283 2.29831 3.80088 -4.30213 0.535989 13.4734
77 26 2 -0.0218535 0.850184 5.26949 -8.55341 -8.61849 18.7487
562 188 1 -4.01074 3.77613 6.65053 -18.971 11.9483 -21.7683
564 188 2 -4.08268 3.45299 5.68136 4.73018 -1.11641 3.14186
546 182 2 -3.39492 1.09394 4.90541 -4.6809 -3.58355 10.1123
544 182 1 -2.67777 1.72234 4.54016 7.29043 -2.28711 -17.3779
388 130 1 -4.1803 0.0270744 6.28497 -12.0637 11.2526 -26.8578
111 37 2 -5.31511 4.98783 4.19718 -12.8193 -5.56136 12.2781
591 197 2 -2.79235 2.98605 7.22168 -10.8035 9.29963 -2.59672
589 197 1 -2.22686 2.44491 7.89001 45.4038 -31.1749 20.5364
110 37 2 -6.76086 5.00894 5.26285 22.8171 7.21181 -22.1281
109 37 1 -5.9043 5.49131 4.88067 -10.8298 -4.69726 6.00323
563 188 2 -4.86328 4.30789 6.8377 6.57662 -1.24041 3.45532
582 194 2 -6.86954 4.57227 8.57648 -13.5333 15.1103 -2.42431