ITEM: TIMESTEP
30500
ITEM: NUMBER OF ATOMS
648
ITEM: BOX BOUNDS pp pp pp
-7.3650027232512070e+00 7.3650027232512070e+00
-7.3650027232512070e+00 7.3650027232512070e+00
-1.6366672718336361e+01 1.6366672718336361e+01
ITEM: ATOMS id mol type x y z fx fy fz
322 108 1 -6.06008 -1.09096 -14.5941 6.07273 6.3092 -0.584428
432 144 2 -2.41863 -3.37423 -12.3921 -22.4319 -2.9547 6.99169
431 144 2 -3.78537 -4.31348 -12.5913 7.80486 14.7635 9.9426
477 159 2 -3.65512 -6.87771 -12.298 -0.452983 7.26962 1.65585
324 108 2 -6.19586 -0.470669 -13.8095 -1.58501 1.63779 3.97285
323 108 2 -6.45074 -1.99088 -14.3061 -2.34857 -5.1733 -7.4682
476 159 2 -2.24384 -6.60558 -13.1577 19.1062 -3.13277 -0.448267
475 159 1 -3.21669 -6.34041 -13.0621 -21.2686 -2.08634 -0.455146
430 144 1 -3.44702 -3.43689 -12.1485 11.0197 -18.822 -15.0961
307 103 1 -0.56036 -7.2356 -13.5424 10.1428 -8.0934 -20.9259
308 103 2 -0.0881987 -6.58869 -14.1984 -6.18859 8.02018 12.4645
383 128 2 -5.12644 -7.01656 -10.1043 1.85435 -8.61987 -12.1854
616 206 1 -7.10312 -2.47076 -11.9316 -5.36498 -31.4257 -14.9706
618 206 2 -6.92044 -1.66688 -11.3459 -2.0145 14.6874 9.34976
222 74 2 -6.32013 -4.74229 -14.4703 -1.02872 4.49378 -6.66857
532 178 1 -7.35697 -4.63467 -10.2288 -12.7597 16.786 -12.9583
630 210 2 -4.20274 -4.64529 -15.6255 10.1409 -4.18118 2.7436
629 210 2 -3.91587 -6.07337 -14.7025 11.7148 6.56319 15.8582
628 210 1 -4.41938 -5.64993 -15.4762 -20.4463 -4.1301 -18.2722
392 131 2 -4.09184 -2.34403 -15.7447 5.77507 -1.76582 4.00989
394 132 1 -0.85271 -3.16077 -12.5876 11.1088 -0.66131 14.8618
220 74 1 -6.87997 -3.89688 -14.3416 11.6669 -6.43024 13.8508
395 132 2 -0.0145393 -3.39115 -12.0208 -11.1382 7.51886 -11.4194
221 74 2 -6.71117 -3.57508 -13.3704 -10.4628 3.70752 -8.0946
396 132 2 -1.05198 -2.15972 -12.5798 7.24955 -2.90042 -2.95469
60 20 2 -3.8589 -0.445288 -10.358 0.468965 -17.407 -6.00081
83 28 2 -4.04507 -2.61173 -10.6391 12.4433 -7.49617 -8.93292
82 28 1 -3.84509 -1.96898 -9.86065 -9.58193 11.0341 10.3321
487 163 1 -0.725841 -2.33416 -15.7881 12.7178 4.68661 -5.1311
391 131 1 -3.45229 -3.13072 -15.8849 -27.8582 -3.37602 -6.14923
393 131 2 -2.51229 -2.95681 -15.5525 18.2195 7.69295 2.37781
520 174 1 0.59216 -5.20103 -15.2882 10.2214 -5.92933 16.6122
522 174 2 0.409768 -5.79425 -16.0986 -4.80987 9.76098 -11.6635
521 174 2 0.2553 -4.2415 -15.4209 -7.63688 -6.97316 -1.74976
617 206 2 7.33955 -3.29385 -11.3654 6.9022 8.73923 -2.12735
459 153 2 4.64465 -2.84348 -9.87072 8.13004 -29.0838 13.962
9 3 2 2.42726 -1.4745 -12.5129 -12.1578 -6.86101 -12.7415
334 112 1 3.63205 -4.63289 -11.2763 -23.994 9.0321 -41.6652
8 3 2 3.12799 -0.0960886 -12.2977 17.7714 13.9286 2.07681
7 3 1 2.28261 -0.579159 -12.0364 -9.15108 7.29302 8.28945
336 112 2 2.93049 -3.87856 -11.1293 7.24605 -5.78413 13.713
335 112 2 3.51948 -4.71329 -12.3364 10.9586 -13.857 32.0271
457 153 1 4.25527 -2.00954 -10.2343 0.805875 27.545 -5.62984
90 30 2 2.11647 -2.15556 -10.3433 0.96964 -12.201 -10.8632
637 213 1 5.62046 -5.85515 -14.6002 -2.64652 -18.7088 3.59921
470 157 2 2.06017 -5.72214 -11.0302 8.42548 6.03086 -3.75848
639 213 2 6.03104 -5.04332 -15.0285 11.1364 16.2872 -4.11616
638 213 2 5.97757 -5.96342 -13.6398 -3.4929 1.23339 -0.0626448
456 152 2 3.00034 -3.25021 -13.9273 0.546976 -3.29206 -0.101484
454 152 1 2.52063 -2.35284 -13.9465 1.07817 -10.1994 10.2609
570 190 2 6.69036 -6.05133 -11.0822 12.1334 20.254 8.87443
568 190 1 5.9979 -6.33129 -11.7605 -18.1204 -23.6636 -15.8569
88 30 1 1.4868 -2.95781 -10.5356 15.8546 12.6955 0.708352
89 30 2 0.675282 -2.73095 -9.9863 -17.9965 -5.14971 8.16561
458 153 2 4.70545 -1.84501 -11.1306 -2.93477 3.05114 -4.39079
356 119 2 2.23485 -5.34882 -14.4321 15.7502 0.959058 14.6073
357 119 2 3.91116 -5.54184 -14.4517 -2.94773 -1.64123 13.4329
355 119 1 3.10459 -5.2744 -13.8474 -19.4754 7.94772 -24.672
471 157 2 0.669498 -6.45884 -11.6431 5.03131 2.61228 1.08156
469 157 1 1.36036 -6.43989 -10.8867 -18.7869 -7.78117 0.53824
569 190 2 5.10131 -5.94107 -11.4506 -0.708817 4.77816 -3.83376
489 163 2 0.286442 -2.29843 -15.6541 -2.28756 -2.61349 8.44166
455 152 2 2.21527 -2.19764 -14.9407 11.9032 2.86696 8.42525
58 20 1 -3.81787 0.554576 -10.5724 -4.26559 26.843 28.273
384 128 2 -4.54454 6.30515 -10.9046 -4.90761 -1.79732 7.35728
382 128 1 -4.81257 7.28557 -11.002 8.47654 10.2261 6.73551
266 89 2 -0.669525 1.07858 -12.2051 -27.3422 0.415548 -2.42084
309 103 2 -0.424668 6.58534 -13.9963 -2.58481 4.65011 10.27
480 160 2 -5.49133 5.53606 -13.8736 -10.1587 -9.69163 9.17228
478 160 1 -6.09195 6.01404 -13.1837 16.8113 -3.34581 -23.8154
176 59 2 -6.03661 0.341874 -11.0073 27.327 4.87096 4.29682
175 59 1 -6.9918 0.0603249 -10.956 -16.1405 6.34776 -4.89792
265 89 1 -1.66642 1.15489 -12.4954 22.9811 1.73061 -4.29822
267 89 2 -2.34869 0.931587 -11.77 -0.832778 -3.70121 10.1545
169 57 1 -3.52938 4.8873 -14.3156 -4.96333 -7.89531 11.7182
171 57 2 -2.60348 5.09656 -13.9383 -5.36404 -4.79353 0.345618
165 55 2 -3.42646 5.1382 -15.8754 6.10527 -18.9775 -21.4391
465 155 2 -0.39219 2.82663 -15.2426 17.1335 7.80225 -3.97258
170 57 2 -3.8619 3.93602 -13.995 6.53612 14.3831 -7.19888
345 115 2 -0.90007 0.512931 -15.7237 -7.34247 6.47597 12.673
339 113 2 -4.34902 1.55347 -15.6734 -0.0460143 3.12422 4.4555
648 216 2 -4.10864 2.13201 -12.6569 4.42171 4.02051 -14.4668
647 216 2 -5.49504 2.28213 -13.4629 -12.9946 3.02129 -7.26152
646 216 1 -4.50385 2.51471 -13.53 7.9841 -7.4807 23.8739
645 215 2 -5.44448 3.97708 -10.793 -3.23258 9.22212 -4.67678
479 160 2 -5.6084 6.90702 -13.237 -8.12369 9.81775 15.0185
344 115 2 -1.61711 1.32287 -14.3424 -4.45093 -13.3702 16.6721
343 115 1 -1.09678 1.38558 -15.2098 7.93197 3.73064 -26.0022
627 209 2 -6.88181 5.87395 -11.4309 -6.98741 0.612483 13.4517
139 47 1 -7.25633 1.99805 -13.0491 12.1351 2.75944 7.31355
363 121 2 -0.421415 0.899827 -9.88965 14.7128 -9.13356 -2.64552
643 215 1 -4.63836 4.31697 -10.2785 2.97632 -19.1455 6.19879
337 113 1 -5.14086 1.28162 -16.252 4.78638 0.272532 -8.7203
338 113 2 -5.59926 0.475966 -15.8264 -4.50617 -6.38268 6.88229
619 207 1 1.24472 1.29373 -10.4135 11.0923 -6.41186 -3.90051
620 207 2 1.5713 0.854412 -11.292 -1.84386 -8.58669 5.94605
626 209 2 6.54887 6.78062 -11.2437 0.294501 -5.65452 11.2305
177 59 2 7.30254 0.331724 -10.0667 -3.94036 -6.34156 4.80573
464 155 2 0.102772 3.92686 -16.3656 -2.14616 6.87845 -5.93981
99 33 2 0.511323 2.80535 -10.1167 12.3788 -3.46769 0.754076
146 49 2 5.33324 0.311035 -11.0092 -4.88006 8.83118 -3.57386
199 67 1 4.7141 6.19366 -15.1754 14.5036 5.99597 2.41878
463 155 1 0.317134 3.58891 -15.4192 -17.957 -9.89577 4.93359
141 47 2 7.01825 1.53289 -13.8414 -8.3245 -0.523263 2.91722
35 12 2 6.82863 3.98247 -13.1566 3.06873 -16.8963 -2.33707
34 12 1 6.15501 4.73621 -13.1888 -4.95467 19.3645 -4.12322
36 12 2 6.73025 5.59256 -13.2048 -1.23845 -7.83916 -0.568305
241 81 1 4.21919 3.65214 -11.5842 -5.49406 2.02228 2.33688
243 81 2 4.75593 4.05949 -12.3727 2.85324 -3.54348 5.6778
242 81 2 3.54272 4.37469 -11.2812 0.49285 -5.71223 -0.605499
120 40 2 1.3727 6.02291 -11.15 15.6471 0.530861 5.32642
625 209 1 7.08875 6.0474 -10.7397 5.83871 18.6137 -24.5592
246 82 2 1.67908 2.72702 -15.282 16.1768 -5.80547 10.1144
119 40 2 2.82916 6.26829 -10.3975 3.9583 5.05591 6.79938
118 40 1 2.20661 5.5482 -10.7696 -16.1946 -7.91806 -8.69802
245 82 2 2.34692 2.68596 -13.8188 9.26812 -6.66917 -11.0564
244 82 1 2.52791 2.36098 -14.776 -13.9937 11.366 5.72781
145 49 1 4.72972 0.726592 -11.73 -1.97289 -1.66099 5.89829
98 33 2 0.814556 4.5035 -9.91497 -0.978727 -25.2108 6.21759
200 67 2 5.29493 7.04995 -15.2494 -15.5807 -6.70208 0.082927
147 49 2 4.40592 1.67374 -11.5032 8.0075 0.32737 -5.86362
201 67 2 5.05776 5.68012 -14.354 -3.49525 -3.38912 -5.57672
140 47 2 7.33729 1.47597 -12.1668 -5.47707 -3.21768 -14.0792
318 106 2 5.97096 3.4644 -10.1616 -2.90176 0.80037 9.8931
438 146 2 4.45202 0.144479 -15.0256 -9.84278 -33.1569 4.59647
436 146 1 5.00677 0.954384 -15.1187 22.8708 5.53738 -5.94905
437 146 2 4.32565 1.67315 -14.9841 -16.2902 25.8953 2.93608
534 178 2 -6.93703 -5.45367 -9.79214 11.609 -8.81059 17.2007
84 28 2 -2.94423 -2.1598 -9.41708 1.86552 -9.4006 -1.96674
533 178 2 -7.09273 -3.79262 -9.66817 4.56334 -6.10011 -1.45179
610 204 1 -6.40453 -2.54673 -9.05047 16.3003 23.7674 1.72749
612 204 2 -6.27209 -2.92725 -8.10382 3.7441 -6.10354 -1.74021
611 204 2 -5.51495 -2.08782 -9.37663 -16.8122 -15.9612 10.7744
350 117 2 -5.98087 -7.11011 -5.16127 -25.516 10.2656 11.5939
10 4 1 -6.47083 -6.70844 -8.86354 -18.2554 -25.1705 -1.08385
12 4 2 -7.21153 -6.54203 -8.14086 11.1957 9.60068 0.957606
209 70 2 -7.35856 -3.58338 -6.15754 13.6431 -19.1423 5.0655
306 102 2 -2.31501 -3.92984 -7.91355 -22.4014 13.8033 30.4962
305 102 2 -2.00553 -3.88508 -6.3042 -13.8425 2.83268 -2.66886
304 102 1 -2.77983 -3.6855 -6.99883 4.52054 -18.7245 -26.5123
376 126 1 -0.467216 -5.40021 -8.28075 4.12187 -2.0361 -14.2565
370 124 1 -7.02055 -5.57674 -4.02053 23.394 -6.94599 19.0336
598 200 1 -0.98142 -4.20905 -5.31447 -8.78527 10.3207 -5.9655
378 126 2 -1.13736 -6.08182 -7.8926 1.45734 -2.69546 -1.25529
362 121 2 -1.2834 -0.528671 -9.31693 11.1921 5.52243 -5.95736
39 13 2 -2.9158 -0.0418038 -4.35493 8.2936 -22.0008 -8.44618
180 60 2 -5.84139 -5.12426 -6.28617 -15.3704 21.0027 -16.8041
179 60 2 -4.78165 -4.183 -6.95326 -13.247 9.19659 -7.14743
178 60 1 -5.81439 -4.2666 -6.89091 31.7173 -21.4776 27.5676
20 7 2 -1.93569 -2.0718 -4.97244 -6.50751 -0.0321881 12.4537
19 7 1 -2.92909 -1.92513 -4.73454 4.72963 0.130858 -28.3816
21 7 2 -3.40518 -2.2221 -5.60289 3.03268 -1.15074 12.5462
122 41 2 -0.744261 -3.74697 -8.56439 6.45566 0.967094 5.34684
123 41 2 -0.780308 -2.15101 -7.89661 0.021602 -11.2899 -2.20051
121 41 1 -0.996192 -2.75276 -8.71629 10.2339 19.2547 -11.95
349 117 1 -5.04777 -7.21331 -5.49482 31.3428 -19.8903 -14.4105
556 186 1 -2.43401 -7.17772 -7.1787 -7.13574 16.4291 8.10877
558 186 2 -2.96814 -6.73017 -6.41691 1.43584 -7.00487 -10.0681
260 87 2 -3.63288 -6.91273 -4.19452 -15.3981 -1.6896 -22.6781
259 87 1 -3.16714 -6.99863 -3.31393 6.1285 3.07131 24.0604
600 200 2 -0.114213 -4.70802 -5.5116 10.1257 -4.91494 7.83086
501 167 2 -0.204633 -6.02421 -3.85137 -8.60742 4.1995 21.9633
599 200 2 -1.38557 -4.43242 -4.4041 10.7515 -2.4703 6.26718
30 10 2 -6.05807 -0.0899429 -4.43827 -8.38633 -11.2495 -17.9688
377 126 2 0.0524583 -5.80996 -9.07954 -6.50098 2.16258 13.3114
208 70 1 6.48478 -3.31527 -5.73901 -29.2366 29.7142 8.70995
87 29 2 6.97087 -1.44545 -6.35538 2.09358 4.2817 -1.66532
412 138 1 0.0787488 -1.00122 -6.55277 11.7024 -11.7079 23.7266
210 70 2 6.30967 -3.62312 -4.7631 19.1676 -5.43756 -13.4317
371 124 2 6.83354 -6.08776 -3.8918 -0.531576 1.08785 -1.24718
413 138 2 0.239408 -1.21464 -5.52951 -5.63515 2.49556 -25.9326
153 51 2 5.60997 -5.35881 -7.26869 8.33825 -16.0449 3.98918
151 51 1 6.25036 -6.16781 -7.13888 -2 16.0156 -25.3115
503 168 2 1.46283 -2.35062 -3.49655 -11.1569 -3.35316 -2.85817
504 168 2 0.950661 -0.775558 -3.42458 3.03108 -3.65642 4.42755
502 168 1 0.707259 -1.71356 -3.77199 -8.61068 -4.88283 -13.7906
414 138 2 0.790537 -0.338779 -6.86073 -5.97672 3.25955 3.44435
152 51 2 6.02607 -6.64053 -6.26269 -8.23432 -3.92159 15.8634
634 212 1 5.45785 -7.24645 -4.79586 8.5739 -2.2257 9.61969
33 11 2 1.55539 -2.45569 -7.28144 -8.76375 -1.42657 2.33993
636 212 2 4.64368 -7.16258 -4.16196 -3.97312 -0.413772 -2.70399
379 127 1 3.78483 -5.09879 -8.40452 13.1184 -17.9905 -33.9584
380 127 2 3.75862 -5.15172 -9.44063 2.46088 3.28314 13.5823
198 66 2 3.69529 -2.05759 -4.61577 6.94008 1.25171 -18.6445
196 66 1 4.04104 -1.7982 -5.58683 -3.86625 10.8489 13.1955
197 66 2 4.96578 -2.22301 -5.6257 7.85504 -8.79592 -7.99555
555 185 2 0.938636 -6.10675 -6.37339 10.0525 -3.41192 -11.003
553 185 1 1.12288 -6.07242 -5.37819 -18.6622 4.83017 17.4736
554 185 2 2.06383 -6.32888 -5.08258 5.49157 -1.75725 -5.46833
381 127 2 3.05616 -4.45822 -8.13809 -13.2638 15.4363 18.7939
85 29 1 6.97627 -0.4147 -6.33097 -12.1549 -6.76731 14.785
524 175 2 5.41803 -0.698653 -9.15384 -2.69835 6.57856 -0.141347
32 11 2 2.97723 -2.565 -6.52262 21.6476 6.35677 17.2938
31 11 1 2.28127 -3.10567 -7.01517 -20.2856 -12.3681 -25.9441
86 29 2 6.39198 -0.170227 -5.50932 9.30491 4.3336 -15.619
623 208 2 4.10542 -7.0167 -8.61737 -10.0808 -0.815195 3.66913
257 86 2 3.4746 -0.101032 -6.23308 7.76316 -19.4551 -6.18262
59 20 2 -3.69967 0.933973 -9.59806 0.0643348 3.39658 -27.9417
249 83 2 -1.50642 4.75766 -9.579 -23.151 22.7283 12.1159
247 83 1 -2.27552 5.39459 -9.23421 29.9205 -23.0938 -3.91261
133 45 1 -3.95103 2.29417 -8.17807 -9.47217 3.95789 -11.3149
248 83 2 -3.16687 5.16296 -9.66484 -9.25533 -6.00383 -8.9525
79 27 1 -6.60435 2.07878 -7.64636 2.53478 -22.6684 3.41049
11 4 2 -6.71308 7.06746 -9.179 7.95143 8.39281 1.25713
361 121 1 -1.13327 0.482706 -9.29164 -23.4619 1.38903 16.4876
37 13 1 -3.17681 0.705859 -3.74075 -27.8281 18.7801 -1.75479
38 13 2 -2.36131 1.10703 -3.31392 21.2789 10.6623 8.90988
473 158 2 -0.130642 6.38285 -5.90929 14.2391 -5.63221 -4.0852
135 45 2 -4.93934 2.36122 -7.84026 12.3887 -5.19914 1.5391
134 45 2 -3.26696 2.76218 -7.57894 -5.70077 -1.2631 4.09359
644 215 2 -4.40311 3.50114 -9.68672 4.90907 11.0066 0.332483
557 186 2 -3.06001 6.99717 -7.76354 0.843822 1.70363 -0.525681
351 117 2 -5.03198 6.56054 -5.89885 -4.48868 14.8557 1.70464
365 122 2 -4.75298 4.95679 -7.0382 2.59298 8.60769 3.23477
299 100 2 -4.11447 4.44129 -4.67474 0.480615 -2.90809 3.00538
300 100 2 -5.01094 3.71273 -3.42296 -3.35838 -15.943 13.3737
366 122 2 -6.19271 4.31767 -7.26677 -7.10879 13.6665 1.4996
364 122 1 -5.73381 5.22849 -7.13176 10.2185 -26.466 -5.21335
298 100 1 -5.02713 4.30609 -4.23922 18.6706 22.4361 -25.1116
369 123 2 -2.59624 4.99447 -7.5815 11.7709 7.25814 -18.2795
368 123 2 -2.13199 4.01727 -6.3082 -1.83984 9.45045 -6.84303
367 123 1 -2.8249 4.71063 -6.63699 -14.5784 -21.9025 24.5304
561 187 2 -1.36815 1.7781 -7.74029 7.31425 -2.69915 -7.74327
559 187 1 -0.996778 2.62485 -7.29765 -9.0941 4.03283 16.0359
560 187 2 -0.629005 3.27769 -7.99717 8.96155 -4.01005 -8.75392
81 27 2 -7.27199 2.24285 -8.40187 -5.24978 4.91373 4.94788
80 27 2 -6.78588 1.1302 -7.24019 0.457429 23.5598 -4.05465
472 158 1 -0.182436 6.18011 -6.91053 11.5772 -1.1957 26.412
117 39 2 -6.4727 4.78285 -4.41163 -1.77426 3.33304 -10.1117
474 158 2 -1.14257 6.49233 -7.0469 -10.2233 5.60511 -17.8166
330 110 2 -0.372734 2.34511 -3.78281 8.48633 12.0354 3.89921
28 10 1 -5.85695 0.361696 -3.57052 -9.84608 2.12698 -1.25263
29 10 2 -4.85729 0.582182 -3.63445 19.4213 -0.14403 6.92265
621 207 2 2.02099 1.11546 -9.73146 -18.5682 10.3963 -7.75939
624 208 2 5.13065 6.61355 -9.1243 0.322533 -6.95257 0.400474
622 208 1 4.13344 6.77179 -9.03102 6.56678 11.2721 -3.23111
97 33 1 0.290821 3.65868 -9.5917 -14.1073 35.3678 -2.55196
523 175 1 5.93456 0.154117 -8.90096 9.64754 -13.5896 15.6087
525 175 2 6.26114 0.0031281 -7.91817 -6.41549 5.68505 -15.1217
116 39 2 6.97027 5.0307 -5.51947 -1.86964 -4.29244 -8.20602
115 39 1 7.33569 5.23825 -4.59673 -10.8302 12.3693 19.0423
418 140 1 0.626833 2.48779 -5.014 1.5928 11.1307 -17.3384
420 140 2 0.0813881 2.5638 -5.89546 2.24572 -4.54 5.78524
284 95 2 3.09383 2.80424 -8.36179 -3.65075 13.1303 4.72691
419 140 2 1.41967 3.1362 -5.08531 -4.44721 -7.1464 1.28151
317 106 2 6.3228 4.9443 -9.67226 11.2565 -10.1692 4.79741
316 106 1 6.25671 3.96948 -9.31599 -7.76427 -0.309819 -11.2809
538 180 1 5.13436 2.45108 -4.63884 -5.25861 -16.1333 5.09736
258 86 2 3.21342 1.2856 -7.24025 5.9932 -7.2614 -13.7251
256 86 1 3.29196 0.887456 -6.30066 -8.37577 21.6746 28.1395
283 95 1 3.31748 1.91322 -8.78983 -0.804061 -6.09973 -7.19139
15 5 2 4.26162 4.68639 -6.6888 -3.62152 2.82791 -1.74373
539 180 2 4.32111 2.11113 -5.16239 3.13077 -3.86906 -0.436815
285 95 2 3.69055 2.07996 -9.72471 2.61398 2.94142 5.84587
540 180 2 5.38645 3.34818 -5.04097 3.50247 10.5478 -8.87457
229 77 1 1.12312 5.68604 -3.37121 25.9649 -4.7241 -11.0418
68 23 2 1.71214 5.43061 -7.0514 2.95465 -9.43935 -5.94111
67 23 1 2.4716 4.86699 -7.47078 -0.458578 11.4244 -5.69622
69 23 2 2.74439 5.35409 -8.34109 0.897842 -3.70941 11.3337
13 5 1 5.25351 4.46669 -6.56829 -0.172305 0.674821 10.8029
14 5 2 5.64599 4.21625 -7.46636 5.24774 -3.11163 -14.3064
231 77 2 1.67126 4.80311 -3.40356 -11.7765 9.3848 4.81373
531 177 2 2.72529 0.483793 -3.86339 -11.0732 -14.9818 27.8388
635 212 2 6.04763 6.69909 -4.48484 -2.3732 -2.3534 -5.30926
372 124 2 -6.40847 -5.64365 -3.17249 -19.8232 4.63415 -22.6861
261 87 2 -3.90492 -6.88641 -2.58903 8.0188 3.25622 -0.306098
354 118 2 -4.59957 -2.47514 -1.90031 -8.07382 -6.98928 -17.3476
94 32 1 -4.01577 -4.73586 1.51145 14.2801 7.76571 4.15028
499 167 1 -0.70004 -5.70273 -2.98614 0.189881 -3.3464 -17.8097
500 167 2 -1.67313 -6.05864 -2.97446 5.92172 -9.06983 -1.69246
95 32 2 -4.17085 -4.38454 2.47833 4.8144 1.61189 -12.4873
96 32 2 -3.31263 -4.14917 1.0098 -14.0124 -7.64968 11.9008
303 101 2 -0.14284 -2.9966 1.87353 -0.959579 -5.01756 1.39712
548 183 2 -6.64938 -3.2354 -2.14376 -8.48157 -11.7145 -0.574136
549 183 2 -5.93955 -4.37371 -1.06431 -4.68208 4.33282 0.237728
92 31 2 -5.49341 -4.60061 0.832614 -3.66297 -5.67208 7.63482
353 118 2 -3.75869 -1.78988 -3.27097 -1.98016 -2.10507 26.2823
547 183 1 -5.78542 -3.65511 -1.78158 10.8159 9.44715 -1.78171
352 118 1 -4.01143 -1.70147 -2.24849 7.89311 1.61467 -6.01825
311 104 2 -0.7909 -4.62885 -1.59485 -3.83054 -1.46448 -3.51184
312 104 2 -1.59056 -3.58257 -0.454357 25.8024 -13.7137 -12.13
310 104 1 -0.708431 -4.11003 -0.709823 -19.6806 14.0156 5.96929
373 125 1 -4.98001 -6.716 -1.32116 -7.36315 -35.3209 13.7018
375 125 2 -4.92538 -6.58462 -0.300476 0.353189 8.48127 -12.5655
234 78 2 -6.93518 -1.09977 -1.39623 -0.834571 -22.1909 13.5873
485 162 2 -6.19479 -2.14658 1.26931 -2.3808 1.03049 8.86245
486 162 2 -5.22964 -1.6613 2.61518 -5.38078 -3.23799 -1.76176
484 162 1 -5.26709 -1.94497 1.63536 10.4117 2.9093 -12.1993
93 31 2 -6.99753 -4.43801 1.55801 3.32765 -7.32064 -10.0562
91 31 1 -6.51394 -4.70551 0.660733 -5.19121 2.92489 -5.191
232 78 1 -7.29879 -0.172455 -1.45853 17.2954 10.2626 -24.1238
274 92 1 -3.02112 -2.54295 0.120179 -20.6683 8.71186 -17.6735
275 92 2 -3.42833 -2.22446 -0.806148 22.6016 -3.81971 19.8109
276 92 2 -3.80613 -2.35641 0.776472 3.88131 0.411317 0.979143
565 189 1 -1.62492 -0.186791 1.64143 13.1926 23.7772 13.4638
566 189 2 -2.10701 -0.930204 1.19395 -7.75574 -26.6869 -18.6806
235 79 1 3.28542 -7.13412 -3.17094 3.70168 -6.63857 9.32708
236 79 2 3.67674 -7.0533 -2.1954 -11.528 0.729281 -12.8271
301 101 1 0.033809 -4.00327 1.81328 0.0287752 2.87178 19.3825
450 150 2 5.44007 -2.69025 -2.84187 -26.6597 6.5357 0.225007
302 101 2 0.123452 -4.2194 0.817828 -8.57648 0.944495 -11.7991
490 164 1 3.43817 -2.46512 -3.20839 8.88075 -29.5908 24.7305
491 164 2 2.9369 -1.59984 -3.04052 -6.55757 19.9633 9.10801
492 164 2 3.16482 -3.17073 -2.47327 -0.848321 9.2556 -21.8294
448 150 1 6.28062 -3.20893 -2.69848 26.6822 -5.16406 -7.22623
280 94 1 6.29459 -5.52512 -1.41764 11.1079 -13.5692 21.24
282 94 2 5.88526 -6.35457 -0.963093 -0.153471 9.75396 -8.3387
281 94 2 7.06722 -5.17487 -0.813348 -13.4201 -5.64245 -5.40815
268 90 1 4.11141 -4.92785 0.956714 -23.6276 8.90395 -22.6335
269 90 2 5.10861 -4.93259 1.09099 13.2213 -2.49081 17.9267
255 85 2 3.79077 -6.13237 -0.269392 -0.885711 3.91181 7.35366
449 150 2 6.1106 -4.22185 -2.52147 0.168956 9.71012 7.39995
270 90 2 3.47321 -5.08881 1.737 11.0305 1.07254 8.73437
253 85 1 3.82161 -7.10046 -0.610798 7.62664 -13.1944 -4.23572
18 6 2 1.16298 -4.36748 -1.47339 -19.1504 2.19111 13.6203
17 6 2 1.70447 -5.22539 -2.78641 4.48823 13.5139 12.2596
16 6 1 1.8992 -4.43187 -2.14809 15.9258 -12.101 -20.486
4 2 1 5.81091 -1.16445 3.00204 5.39122 -12.3855 16.0575
5 2 2 5.26434 -1.31832 2.14911 3.72917 7.58856 -6.14394
166 56 1 0.72835 -6.61011 2.45939 5.46588 10.0806 -13.8251
168 56 2 0.276152 -5.70043 2.25162 3.3584 -2.71136 9.0356
182 61 2 4.17828 -3.05315 0.547317 16.5292 33.8019 9.43451
446 149 2 2.44969 -1.88414 2.81054 -1.1294 -8.69834 -9.57302
445 149 1 2.48157 -0.95609 2.35728 -4.37074 10.4175 23.917
181 61 1 4.52111 -2.07742 0.796668 -8.9077 -37.8616 -17.9447
183 61 2 3.79938 -1.66982 1.3852 -19.04 8.96284 6.92554
6 2 2 6.16108 -0.211862 3.18197 -4.78992 6.38008 -6.90376
498 166 2 4.60467 -0.545827 -0.286301 -3.23648 -7.76455 1.856
447 149 2 1.96708 -0.357881 3.03302 6.04974 -3.88764 -20.5743
51 17 2 6.27374 -3.25557 2.59296 -6.37489 14.0673 10.9982
49 17 1 6.88115 -4.04073 2.78265 7.05124 -9.75896 -23.5178
527 176 2 1.26359 -3.77089 3.26155 16.1366 8.54632 -8.65232
374 125 2 -5.31162 7.02386 -1.41605 -0.0543828 21.7986 0.499086
592 198 1 -4.68256 3.95447 0.395156 17.6895 -10.5851 -17.9952
594 198 2 -5.38244 4.35585 -0.2374 -7.33392 9.10046 2.6063
593 198 2 -4.09392 3.34344 -0.224637 -16.2742 5.22505 23.8228
506 169 2 -6.674 5.14473 -2.0142 2.57497 -1.88056 -7.78512
507 169 2 -7.3255 5.4869 -0.584322 8.08858 -3.65188 6.77605
505 169 1 -6.42794 5.4927 -1.0928 -8.11817 5.11965 -2.10676
158 53 2 -0.458334 1.67848 -0.7538 3.35884 -7.07641 5.6365
287 96 2 -2.38328 5.56293 -2.18963 5.2317 6.93924 -9.75621
150 50 2 -4.53333 4.97569 1.82442 8.89152 3.49338 25.2562
286 96 1 -1.43453 5.3305 -1.90501 -12.0017 -14.8108 16.4895
288 96 2 -1.52084 5.15628 -0.889808 14.996 7.47079 -8.5953
149 50 2 -3.60349 6.22263 2.3658 -5.18087 -9.54572 12.3417
233 78 2 -6.74008 0.0878948 -2.3213 -16.0165 6.26686 19.8256
340 114 1 -4.24862 1.6266 -0.955898 46.2678 -28.8072 18.5032
342 114 2 -4.92612 1.95202 -1.61597 -21.4439 3.31841 -22.5076
341 114 2 -3.74752 0.743226 -1.21885 -21.0374 24.6866 -0.0526379
462 154 2 -5.69095 2.08385 0.885725 -13.395 -20.0559 -10.2019
460 154 1 -6.31002 1.27322 1.1185 -0.262365 4.05695 6.28328
567 189 2 -2.34597 0.24865 2.20998 -7.02064 7.24455 7.96187
329 110 2 -0.911195 3.10994 -2.24998 7.13951 1.09885 -21.8467
328 110 1 -0.85561 2.28583 -2.86616 -20.6689 -12.9733 25.7908
535 179 1 -0.634382 6.20517 0.794112 -18.9173 -28.2189 -9.87426
461 154 2 -6.66801 0.709704 0.314009 13.6453 19.67 8.8869
159 53 2 -0.252616 1.04924 0.815883 -6.37173 -3.38 -11.6995
278 93 2 -7.16754 3.05461 -2.58744 -3.23302 4.03189 3.68664
443 148 2 -0.447654 0.485235 3.1475 -8.81351 -14.7251 4.3206
277 93 1 -6.21352 2.69265 -2.56391 -13.614 -28.5969 -5.25607
279 93 2 -6.27558 1.74552 -3.05778 9.66575 29.551 16.2084
536 179 2 -1.18534 7.02061 0.652861 -8.49653 18.1407 -1.54695
148 50 1 -4.184 5.44707 2.7032 -4.73356 -1.10753 -39.4963
545 182 2 -4.90417 1.03271 2.39795 9.86142 0.92632 -2.68171
544 182 1 -4.16383 0.915776 3.10738 -27.463 -14.8108 2.11667
573 191 2 -7.27412 1.3091 2.83458 -3.8157 5.79279 -0.913747
237 79 2 2.52205 6.90485 -3.1111 -1.2302 3.56234 -5.64025
602 201 2 2.10833 2.34952 -3.09134 2.70839 7.0975 0.446156
601 201 1 2.58729 3.24955 -2.96933 -9.8259 -3.02528 -9.07556
230 77 2 0.271888 5.62382 -2.82409 -13.4602 -4.64112 9.01846
254 85 2 3.38424 6.99819 0.0849236 -2.2762 8.11594 -0.0465263
398 133 2 1.88182 7.24169 1.72627 -9.50387 6.41701 11.9337
397 133 1 2.41677 6.43434 1.38839 15.3351 -19.9036 -9.62982
54 18 2 6.33108 3.54254 1.0328 -2.81766 -9.53182 -1.09308
320 107 2 2.23971 4.54395 0.14117 -18.4661 9.48436 14.757
319 107 1 2.04479 3.64008 -0.274718 20.1311 -17.9493 -23.7047
321 107 2 1.17327 3.10478 -0.0882022 3.00614 10.0318 10.4159
537 179 2 0.304615 6.46386 1.00482 23.1704 5.5354 8.65887
297 99 2 4.3273 1.48815 0.274302 13.5894 7.77531 16.8178
157 53 1 0.118706 1.68102 0.0951677 -2.52243 7.75999 2.76298
530 177 2 3.16456 0.223301 -2.28653 15.3147 4.62686 20.104
529 177 1 2.43988 0.0250095 -2.95725 11.7681 29.0942 -44.0299
496 166 1 4.81754 0.168612 -0.984691 12.1063 -2.86869 -0.0428973
52 18 1 6.15954 4.36619 0.470193 -0.54359 22.0185 -3.83973
497 166 2 5.83969 0.016006 -1.19044 -15.6555 9.83819 -0.821103
53 18 2 5.59762 4.14073 -0.358181 5.30386 -8.08968 -1.7067
603 201 2 2.47117 3.52801 -1.99463 -1.18509 -1.57187 13.4015
57 19 2 4.39809 4.19755 3.15511 1.33932 -3.5725 -12.8413
56 19 2 4.86418 5.11951 1.71362 -0.152627 -14.0221 19.6166
55 19 1 4.43062 5.10589 2.66279 0.487807 15.3387 1.24944
399 133 2 2.94411 5.98245 2.16226 -2.61446 4.87204 -8.41196
333 111 2 5.30144 2.96948 -2.90605 -2.97863 6.71608 -4.18197
331 111 1 5.43646 3.77028 -2.26733 15.0546 -7.82524 14.6238
296 99 2 3.50749 2.78044 0.381233 -1.76604 10.1261 11.9192
332 111 2 4.67165 4.41408 -2.38187 -9.37415 3.65801 -7.41388
295 99 1 4.24757 2.3062 0.915454 -17.2806 -23.2084 -31.5384
347 116 2 3.75682 2.27441 2.81236 -2.54158 -9.53567 -31.391
444 148 2 0.668804 1.43681 2.60027 6.63461 -3.29742 15.0987
326 109 2 -5.51857 -3.25287 8.79283 8.77826 9.94007 -2.74799
325 109 1 -5.1926 -3.66081 7.90999 -12.1362 -22.5397 -7.26197
192 64 2 -5.02719 -2.54524 4.37973 14.7195 0.175078 -5.03638
327 109 2 -4.3099 -3.33515 7.52981 3.75145 12.573 10.826
402 134 2 -1.45008 -4.31009 7.71194 7.56183 6.84758 -10.135
400 134 1 -0.762251 -3.59133 7.38845 -3.99065 -14.0953 8.39435
401 134 2 -0.497257 -3.05378 8.21335 -1.65974 13.0237 9.13395
240 80 2 -2.38525 -5.79771 6.98346 -4.31683 -0.880362 0.186828
112 38 1 -5.31212 -5.36186 5.57854 10.9483 -26.1984 -3.44851
101 34 2 -0.940893 -1.21865 5.31232 -10.0881 -1.26068 0.501446
190 64 1 -4.30678 -3.24152 4.12017 -24.3208 -20.3351 34.1594
191 64 2 -4.47049 -3.9984 4.84186 7.41581 16.5487 -31.1717
314 105 2 -2.18255 -5.41105 4.30405 -2.82687 -0.665596 21.1379
313 105 1 -2.02384 -5.8663 5.21944 -15.8358 12.7139 -21.3698
315 105 2 -1.30816 -6.54743 5.00262 16.6792 -16.74 7.51041
238 80 1 -2.46768 -5.57968 7.99198 -4.36511 4.09826 11.586
239 80 2 -3.34949 -5.84866 8.46649 13.5567 -1.76268 -13.6503
211 71 1 -4.80014 -0.102921 7.664 -19.3491 -9.22088 43.8612
389 130 2 -6.55114 -0.563217 5.55957 0.524306 -0.847889 -5.19139
390 130 2 -5.05976 -0.938889 6.06046 1.1992 8.35356 5.3676
114 38 2 -5.0937 -6.37026 5.61529 -5.23364 12.1951 -5.92702
212 71 2 -5.19716 -0.0595556 8.64574 12.374 -2.86608 -34.1127
100 34 1 -0.338198 -2.04702 5.19049 16.8585 -10.6444 -8.72416
102 34 2 -0.606391 -2.88521 5.7282 -9.83186 9.78599 7.35604
513 171 2 -6.78951 -4.78506 5.64041 -6.25634 0.2336 -8.82105
595 199 1 -0.0537301 -2.06134 9.75227 -2.53976 -20.2599 4.23529
113 38 2 -5.16411 -5.00182 6.50601 1.88072 13.4923 22.9353
388 130 1 -5.63518 -0.859402 5.21465 -3.02873 -6.76589 -12.4915
434 145 2 -0.985641 -5.81382 9.44596 -3.88242 -8.90876 4.02348
606 202 2 6.82793 -1.09658 8.97345 7.18003 -4.78084 -4.68906
605 202 2 6.40761 -1.08452 7.30758 0.0153899 -4.21516 0.0245924
604 202 1 6.50484 -0.5499 8.18244 -4.4277 15.716 -3.2923
439 147 1 6.52919 -4.75236 9.30368 8.32885 9.20767 5.62683
441 147 2 7.15148 -5.32442 8.75162 2.22237 -12.6525 -6.39946
50 17 2 7.11319 -4.17137 3.77371 -8.39078 2.14332 12.9427
615 205 2 1.27444 -2.00229 5.90539 -13.7311 -2.55976 -2.58242
26 9 2 3.98513 -0.5425 8.82269 1.0736 -0.840758 -0.82385
25 9 1 3.74308 -1.50193 8.58973 2.50849 1.10208 -0.490375
27 9 2 3.11093 -1.52044 7.79028 -3.38866 -3.48655 -1.16878
613 205 1 2.25957 -1.77818 5.75705 15.0242 -2.75087 -3.43016
575 192 2 6.29834 -2.71576 5.64258 1.66079 -5.47963 -6.90368
576 192 2 5.7591 -1.37925 4.7637 2.83177 -4.00772 -13.5682
291 97 2 1.01382 -3.7435 7.85229 19.4986 -6.18235 21.7693
289 97 1 1.84965 -4.00048 8.43511 -13.264 -7.44261 -33.224
511 171 1 6.98286 -4.44159 5.41411 0.822111 3.50571 8.47949
512 171 2 6.31362 -4.71235 6.14539 -2.33912 2.88893 -4.14557
526 176 1 2.25158 -3.43619 3.28881 9.13782 -31.8474 32.1625
528 176 2 2.80756 -4.20874 3.75438 -13.0253 20.2857 -12.0617
574 192 1 6.06385 -1.72171 5.67642 -0.447404 8.61657 23.593
614 205 2 2.46969 -2.21206 4.84788 2.64588 -0.164584 7.09704
403 135 1 4.67 -4.26002 6.89871 24.2589 -16.6312 18.5973
290 97 2 1.74599 -3.85621 9.43055 -6.22824 7.38521 4.71017
65 22 2 4.4006 -0.0583746 6.03265 3.18834 -0.546565 -2.53471
62 21 2 4.32199 -5.2382 5.27303 -9.05896 3.0454 1.84901
417 139 2 2.22728 -5.66819 7.7617 12.8601 -11.9561 -1.15574
405 135 2 5.09028 -4.43337 7.82488 -2.85134 -8.50298 -10.0927
77 26 2 1.71319 -0.24635 5.86719 4.04419 -0.419608 5.76246
167 56 2 0.613459 -6.95322 3.41511 -9.60019 1.09781 9.59094
61 21 1 3.75072 -5.6126 4.50178 -4.40518 28.8537 -1.49943
63 21 2 4.24945 -6.41482 4.16591 4.86194 -17.9442 -0.263034
415 139 1 2.57207 -6.65157 7.67679 -5.01223 0.0973005 -16.9054
416 139 2 3.00785 -6.85026 6.75029 -6.85497 11.7766 20.5185
440 147 2 7.11388 -3.97137 9.64529 -4.00297 -0.605583 0.149065
404 135 2 4.13651 -3.44133 7.09931 -20.6159 19.5264 -4.43498
423 141 2 4.42564 -2.62571 9.75464 -4.4465 -4.99271 -5.06704
579 193 2 -2.10565 0.995193 8.26953 0.188962 -10.3492 4.36088
213 71 2 -4.04093 0.556459 7.58044 10.5623 10.8932 -1.87859
493 165 1 -1.67426 0.27324 5.24344 3.37539 29.3641 14.9651
494 165 2 -2.16316 0.876472 5.93438 -1.12136 -14.7225 -3.86601
495 165 2 -0.858547 0.860813 5.03305 -2.97409 -12.0112 -5.60627
577 193 1 -2.41068 1.65503 7.55906 -2.45028 -2.38385 2.66953
155 52 2 -5.86854 4.71268 9.11733 -0.6527 -14.8593 -2.06009
154 52 1 -6.10347 5.68242 8.95994 5.25421 19.1479 -9.711
578 193 2 -2.30968 2.54153 8.03583 0.142956 10.6187 -3.45591
562 188 1 -3.2921 3.18793 4.14197 -2.31419 -1.94154 8.64868
564 188 2 -3.58613 2.232 3.8732 3.08885 0.501219 -5.9909
546 182 2 -4.64245 0.362775 3.84078 13.2391 3.08704 -0.678423
111 37 2 -4.57199 3.54205 5.95186 0.668749 -1.8941 -4.22534
589 197 1 -0.058617 4.06398 8.27438 25.8224 -6.82859 -6.35018
110 37 2 -6.17866 3.95514 6.04737 -16.1359 -10.5862 0.136438
109 37 1 -5.23981 4.28026 6.16609 18.0187 9.99305 2.43109
563 188 2 -3.88363 3.8583 3.63314 5.91363 6.90913 -1.11805
23 8 2 -2.09682 4.16023 4.86688 -13.5404 -4.46074 -15.8515
22 8 1 -1.59987 4.85101 5.42983 12.8247 -13.8235 40.8685
24 8 2 -1.50526 4.37578 6.3571 3.12596 19.003 -22.2384