ITEM: TIMESTEP
3000
ITEM: NUMBER OF ATOMS
648
ITEM: BOX BOUNDS pp pp pp
-7.3762863910391578e+00 7.3762863910391578e+00
-7.3762863910391578e+00 7.3762863910391578e+00
-1.6391747535642633e+01 1.6391747535642633e+01
ITEM: ATOMS id mol type x y z fx fy fz
389 130 2 -6.54142 -7.35755 -15.8783 -0.814614 -0.843301 -3.47419
76 26 1 -4.25525 -3.75509 -13.4762 -11.3843 0.857495 -8.47753
78 26 2 -3.5782 -3.01915 -13.1667 2.82144 -10.8381 0.663647
77 26 2 -4.0042 -4.11769 -14.4081 5.84854 1.01392 8.02119
527 176 2 -5.85329 -3.9992 -13.996 -5.3079 -5.50149 -11.6574
114 38 2 -1.44448 -2.2746 -12.7333 -9.91895 -3.57982 3.38203
112 38 1 -2.43882 -2.16626 -12.4178 12.407 24.426 -6.44016
113 38 2 -2.6488 -1.15822 -12.5291 -2.1274 -8.57645 -0.250465
269 90 2 -3.70977 -7.00043 -14.3566 -12.2062 11.886 7.34859
270 90 2 -5.02354 -7.02347 -13.1672 12.7592 5.45421 -12.9032
89 30 2 -6.59205 -1.88157 -12.6458 -1.05319 4.16846 -7.73707
75 25 2 -1.12296 -2.56178 -10.6154 -5.82428 3.15021 0.769265
121 41 1 -5.82813 -2.74581 -11.4005 1.22012 -9.08998 -1.46499
122 41 2 -5.26462 -3.26621 -12.0885 6.03152 3.60794 -2.57145
123 41 2 -6.17387 -3.43049 -10.7382 -1.63574 -0.323384 5.4983
73 25 1 -1.04319 -3.30967 -9.92957 -8.35266 -3.65078 -23.0872
74 25 2 -0.52213 -4.04301 -10.448 2.31458 -5.96883 14.8001
200 67 2 -4.73034 -6.06726 -16.1199 4.85084 -4.71041 -3.79811
199 67 1 -3.80625 -5.69717 -15.8177 10.214 1.48822 4.66733
526 176 1 -6.75466 -4.1728 -14.486 -6.41732 5.21384 2.2269
528 176 2 -6.69324 -4.71917 -15.3481 7.01256 -1.21042 6.87321
90 30 2 -7.26196 -1.1969 -14.1295 3.39837 -14.588 0.696212
88 30 1 -6.83808 -1.03849 -13.2046 -9.71437 14.2577 1.74029
531 177 2 -4.4309 -1.51215 -10.3178 -0.889858 -4.14149 13.0061
11 4 2 -6.34843 -6.78087 -9.88044 1.75368 12.076 -0.559402
201 67 2 -3.04281 -6.3651 -15.9714 -8.86042 2.36145 -5.64175
516 172 2 0.254103 -5.46478 -14.5111 12.0028 -4.65138 -1.92324
515 172 2 1.79457 -4.68959 -14.2624 4.7146 -12.1872 6.48532
514 172 1 0.776157 -4.59356 -14.3811 -17.8065 12.995 -8.54178
363 121 2 0.32351 -6.2052 -11.2612 3.31626 1.7837 -6.04566
295 99 1 6.87548 -1.22262 -16.0693 14.9458 9.95196 -0.758473
643 215 1 4.08751 -1.7614 -16.2247 -21.6269 30.3676 3.38044
644 215 2 3.99456 -0.931222 -15.6438 1.51599 -5.65907 2.04663
169 57 1 3.19601 -5.55413 -10.4589 10.1194 14.9958 5.53333
170 57 2 4.14113 -5.338 -10.139 4.5386 9.63092 10.0646
171 57 2 3.2371 -6.53357 -10.7536 -11.9426 -17.2593 -3.80351
354 118 2 0.348487 -0.180051 -12.8501 1.74416 -0.824776 7.98675
55 19 1 0.129337 -2.37202 -13.1012 4.49877 -1.25644 -9.76373
56 19 2 0.995644 -2.40141 -12.5646 0.434945 -2.62694 3.89737
57 19 2 0.216617 -3.17928 -13.7756 -0.0676354 7.9382 12.2154
362 121 2 1.49183 -5.56341 -10.3046 3.52323 4.21251 -4.54482
300 100 2 0.133496 -0.659599 -16.178 2.60647 1.52119 6.87225
161 54 2 4.63304 -3.06448 -15.9808 11.1193 8.64933 6.54904
361 121 1 0.520093 -5.43022 -10.6198 -9.56144 -5.79138 2.8513
162 54 2 5.97716 -3.67843 -15.0497 0.571824 7.27611 -0.567189
160 54 1 5.27177 -3.87309 -15.7651 6.01045 -37.6449 1.34639
26 9 2 4.01566 -4.57533 -14.4684 3.03951 -1.88796 0.105171
25 9 1 3.38595 -4.83423 -13.706 0.146497 3.60156 -2.35676
27 9 2 3.85165 -5.34103 -12.9545 -1.49572 -0.826743 -3.08641
261 87 2 6.26109 -4.84999 -9.91201 -0.931969 -10.7153 2.27724
179 60 2 3.74625 -2.88436 -10.8362 14.4712 3.44567 -6.633
178 60 1 2.79221 -2.75505 -10.5653 -10.5662 -19.3286 8.43714
17 6 2 5.58575 -6.80365 -15.2735 -3.90273 -0.661848 2.93481
18 6 2 5.50982 -5.4702 -16.2574 -1.5185 6.33472 3.56259
180 60 2 2.52131 -3.69885 -10.2382 -2.12795 7.36885 -7.83207
16 6 1 5.74916 -6.46682 -16.2177 -1.49909 -9.19875 0.997747
205 69 1 -7.04391 4.87993 -11.9648 6.85469 -2.07672 -2.761
206 69 2 -6.93228 5.38839 -12.8349 1.08324 1.94438 -6.09919
207 69 2 -6.33614 4.1366 -11.9082 -3.82882 7.89251 0.61959
268 90 1 -4.26084 7.24819 -13.6579 -2.63447 -21.5349 10.6741
585 195 2 -0.694076 6.98543 -15.9864 -6.11072 -1.49781 4.15093
9 3 2 -1.65152 0.615067 -15.6967 1.05679 0.906671 -5.22564
369 123 2 -4.29275 5.34507 -13.8589 -11.8713 -3.37402 -8.1745
214 72 1 -5.90554 1.28502 -14.3971 7.47485 11.7612 -4.78906
215 72 2 -6.71005 0.702533 -14.1361 12.3357 -2.37624 -0.23718
368 123 2 -4.6621 3.7905 -13.3777 -4.82105 4.1215 2.06777
367 123 1 -4.6932 4.43838 -14.1763 18.7685 -0.147202 4.28965
198 66 2 -2.13931 3.9782 -12.594 4.63131 8.54379 4.6437
583 195 1 -0.0369705 7.36295 -15.2969 -5.26365 -2.39565 -11.5871
639 213 2 -3.21301 0.698374 -14.2459 7.26133 -2.18906 1.78693
196 66 1 -1.36268 4.61097 -12.7879 -16.6381 -7.07198 4.56196
447 149 2 -5.5011 2.45446 -11.5972 -2.51799 -5.94922 1.76954
445 149 1 -4.73008 3.12937 -11.6873 -7.60234 3.47142 -13.4894
588 196 2 -6.76094 0.254694 -12.1801 0.703018 10.5972 4.63905
197 66 2 -0.744101 4.12205 -13.4478 11.6384 3.21653 -0.0995791
637 213 1 -3.26324 0.597191 -13.2176 -12.6313 0.244205 9.01282
638 213 2 -3.79092 1.336 -12.7428 8.27885 -1.081 -0.482309
334 112 1 -2.19396 3.3563 -15.7384 -11.4999 19.582 30.3878
335 112 2 -2.84806 3.7994 -15.0618 4.53568 -3.13183 -20.482
586 196 1 -6.80166 1.14817 -11.6313 -0.71183 -9.67751 -1.77173
623 208 2 -0.42321 6.72881 -12.1714 5.50616 -1.58401 -6.30689
446 149 2 -4.24773 3.16474 -10.7847 4.40149 -7.12603 0.447509
189 63 2 -5.24522 4.04818 -16.1431 -0.402502 8.277 -5.79945
336 112 2 -1.2768 3.48033 -15.2854 6.51344 -6.25493 -9.67549
587 196 2 -7.0671 0.90576 -10.6796 0.715052 0.850686 3.27861
379 127 1 -2.91484 1.98936 -9.92931 -5.19076 -15.6596 -5.36972
216 72 2 -5.04563 0.954641 -13.9415 -14.2453 -5.32759 -4.7019
8 3 2 -2.78672 1.81713 -15.8741 14.7029 3.64078 -3.1681
381 127 2 -2.01031 1.70111 -10.3145 -2.81175 5.90862 6.27116
563 188 2 -0.00319956 4.87695 -10.2972 -1.86717 -4.57147 3.94141
519 173 2 -6.99522 2.90486 -15.0103 1.7407 -5.86831 -4.90004
7 3 1 -2.65768 0.794177 -15.8156 -6.38735 5.50944 5.90872
352 118 1 0.315929 0.841571 -12.8401 -0.564215 10.0063 -12.0568
235 79 1 5.28926 6.96016 -13.0122 7.95919 -12.2404 20.8956
329 110 2 6.54312 6.26116 -14.3724 3.89039 7.65625 0.910266
328 110 1 7.32169 5.93248 -14.9548 -13.6249 -0.286313 9.47719
330 110 2 7.05557 4.97364 -15.1916 6.14375 -4.529 -5.43099
298 100 1 0.256589 0.310402 -15.8702 -9.80133 -3.11281 9.00733
237 79 2 5.58063 6.97823 -12.022 5.49626 11.4146 -9.8155
624 208 2 0.278255 7.31133 -13.5483 3.29799 -1.54882 -0.102732
622 208 1 0.411018 7.20771 -12.5277 -13.7062 -0.736662 0.652209
517 173 1 6.92513 3.14897 -15.5611 -1.42284 5.08396 -4.92243
542 181 2 3.11718 5.78874 -11.3501 -7.07747 -0.240326 -1.19993
584 195 2 0.872001 6.98051 -15.6298 1.40514 8.24628 18.8309
353 118 2 1.04843 1.28702 -12.269 3.7104 -13.5506 -0.606738
323 108 2 3.88921 1.63613 -12.7642 1.46325 1.79492 3.52459
236 79 2 4.5822 6.23732 -12.9312 -10.5645 0.427374 -13.246
280 94 1 5.26908 2.00274 -13.6598 -3.4863 -12.0572 4.63856
281 94 2 5.6475 1.18086 -13.1753 3.47076 8.44067 -8.5798
282 94 2 5.81058 2.24229 -14.5068 2.23249 3.54357 3.21006
322 108 1 3.03512 1.52823 -12.1964 -15.016 1.97686 -4.19635
324 108 2 3.19518 1.12252 -11.2668 5.1382 3.65726 4.2139
504 168 2 6.45897 2.55082 -11.3898 -19.6017 7.69262 8.69621
292 98 1 3.31496 4.42598 -12.0479 10.485 -28.1304 -8.68495
293 98 2 2.69837 3.63683 -12.2753 -0.590976 7.15188 3.92355
294 98 2 4.20739 3.94369 -11.9177 5.50326 3.33832 5.78783
97 33 1 0.336927 3.22861 -14.2846 -6.98026 -3.13439 11.8489
98 33 2 1.29513 3.59725 -14.2202 -1.2582 4.2032 -15.1548
99 33 2 0.386763 2.31445 -13.8185 -7.75348 -5.03024 0.109256
502 168 1 5.87413 2.96913 -10.6394 25.9377 -9.34513 -6.65853
541 181 1 2.73398 6.73639 -11.1633 8.10342 0.651302 -0.0536455
503 168 2 6.64986 3.2756 -10.0091 -12.3468 1.77065 -5.02053
244 82 1 2.79117 3.67664 -15.2386 -8.70784 19.3761 7.89123
245 82 2 3.68743 3.65448 -14.7502 2.9839 -17.812 -9.29903
148 50 1 5.66587 6.66144 -9.93024 -5.71949 -8.73524 2.34665
543 181 2 2.08541 6.90077 -11.9454 -9.52048 4.9607 4.47134
149 50 2 5.8229 5.68529 -10.1716 4.04656 -1.21559 -2.61042
299 100 2 0.492005 0.430737 -14.8713 -4.14951 -7.59674 -9.64555
433 145 1 2.41256 6.41896 -15.5197 -1.67445 6.34696 -5.8367
434 145 2 2.54628 5.42784 -15.3 1.29913 -5.93695 -7.48428
246 82 2 2.45393 2.90878 -15.855 14.4272 1.57329 3.32682
425 142 2 -2.6047 -3.98324 -8.75851 7.41927 -12.9442 1.25135
128 43 2 -0.913857 -1.30498 -7.76942 5.74587 -0.255581 1.31748
127 43 1 -0.722989 -2.31214 -7.59079 -5.05934 13.4874 15.7095
81 27 2 -0.066486 -4.02613 -7.06681 13.5529 -6.84138 2.56595
129 43 2 -1.15586 -2.67986 -8.4594 16.819 -12.3765 -1.46247
22 8 1 -2.14239 -5.25242 -5.39623 3.01925 4.88588 -5.2062
24 8 2 -3.00656 -5.23793 -4.84371 -8.27429 -1.18752 -0.243427
23 8 2 -2.40365 -5.01871 -6.37407 3.99781 -6.34098 1.47965
490 164 1 -3.93629 -2.19781 -6.29422 23.266 9.22068 -9.59339
492 164 2 -4.09643 -1.26838 -6.68697 -17.0155 -7.48301 -0.421846
10 4 1 -7.05193 -6.11077 -9.56829 6.20443 -22.2601 -0.616063
94 32 1 -2.07999 -0.0146534 -3.65883 0.650985 3.78062 18.4426
424 142 1 -2.8357 -4.55698 -7.93199 -10.2891 28.4495 -6.06282
426 142 2 -3.41668 -3.89122 -7.40294 -3.59976 -6.10353 2.71562
210 70 2 -5.49815 -6.21312 -5.19125 -9.98436 1.9466 -13.8644
208 70 1 -6.11481 -6.51441 -5.97546 19.5067 -1.08474 8.21459
96 32 2 -1.91111 -1.00475 -3.93222 -3.33407 2.88732 -7.43044
412 138 1 -1.85126 -2.56467 -4.24654 4.36484 -25.7795 6.2853
232 78 1 -7.04114 -3.52643 -6.3706 -15.9094 7.75986 12.9284
233 78 2 -7.30933 -4.33857 -6.92317 9.78008 4.04019 -4.56004
491 164 2 -2.93128 -2.15849 -6.11956 -1.65017 -7.88686 10.7129
172 58 1 -4.46164 -5.01743 -4.03536 6.04345 1.62869 -10.6561
80 27 2 -0.221889 -5.46754 -6.35758 9.85805 -2.65713 2.06185
601 201 1 -1.78035 -6.92365 -8.85153 -14.9692 -13.4474 -6.65641
602 201 2 -2.26658 -6.01702 -8.80337 7.62408 2.0068 6.63554
603 201 2 -0.788732 -6.82932 -9.01427 9.21156 8.59897 -0.192633
234 78 2 -6.79837 -2.63957 -6.84828 6.17693 -8.48482 -7.9548
484 162 1 -6.29697 -1.17429 -7.7451 -7.69752 -12.766 9.31069
486 162 2 -7.11672 -0.632864 -8.03687 -1.75618 -1.14565 -4.16127
485 162 2 -5.5751 -1.34799 -8.47974 -4.39384 12.3177 6.01012
529 177 1 -4.2938 -1.07578 -9.39097 5.76853 4.23052 -31.7939
530 177 2 -4.00998 -0.116605 -9.60235 1.53519 -0.453345 7.50825
209 70 2 -5.51886 -6.81652 -6.76276 -4.30452 1.81864 9.34904
413 138 2 -1.91344 -3.50548 -4.67468 2.92978 11.9891 -1.02657
476 159 2 -1.7525 -6.94222 -4.87897 11.2447 -1.53201 -8.57067
173 58 2 -4.72172 -4.02442 -4.11461 4.0751 -4.1865 2.58658
339 113 2 -6.29014 -1.87611 -4.46205 -2.7325 -9.73728 -13.8703
338 113 2 -6.49897 -3.54065 -3.89868 -3.4959 16.4197 -19.0337
337 113 1 -6.20336 -2.56932 -3.72465 7.99391 -9.41314 37.7603
239 80 2 0.876252 -1.72605 -3.54998 -1.48963 -0.847015 -3.47921
12 4 2 6.97701 -6.74742 -9.20001 -3.33932 10.6925 -4.92528
79 27 1 0.497753 -4.80749 -6.67466 -26.3923 18.3788 -3.6443
471 157 2 1.6512 -7.20567 -5.67178 0.00699385 2.85464 8.69297
464 155 2 5.89985 -2.77208 -5.78407 2.67924 -16.5301 -8.12757
141 47 2 0.642048 -1.9263 -6.46418 0.227852 0.959563 10.5568
259 87 1 5.51649 -4.53966 -9.28222 2.46076 4.54324 -14.6638
260 87 2 6.01844 -3.97728 -8.61406 -6.93683 6.44083 10.3782
483 161 2 1.31161 -1.40332 -8.03363 -5.15074 1.52825 1.39897
481 161 1 2.13049 -1.13425 -8.56482 4.91396 -4.14789 3.92926
465 155 2 4.26789 -3.35296 -6.23565 16.2155 -2.37221 -3.16284
482 161 2 2.44897 -1.98551 -9.06203 -1.19137 11.4048 -8.44716
139 47 1 1.46643 -1.76501 -5.85768 -7.12073 -15.6143 0.303891
463 155 1 4.88818 -2.63853 -5.80443 -18.2161 14.442 3.74956
83 28 2 3.51071 -5.04287 -5.98399 2.80338 -6.33456 -4.11914
548 183 2 5.30417 -0.736243 -7.30194 -4.10226 0.983281 -5.61499
140 47 2 1.99658 -2.63613 -5.83778 0.0498829 0.197748 -0.768539
82 28 1 3.10744 -4.54841 -6.80574 0.653102 14.1113 6.48801
479 160 2 3.81219 -6.55334 -8.12397 -1.54309 -5.39964 3.29484
84 28 2 2.07197 -4.60023 -6.72029 -1.14185 -7.85695 -7.29551
594 198 2 4.42807 -1.73469 -4.5347 10.0269 8.70154 4.24458
547 183 1 5.7757 -0.396233 -8.14334 7.85625 1.66712 -2.50184
633 211 2 2.54651 -0.475465 -5.79641 -11.8202 -4.69899 -0.305438
342 114 2 7.09441 -7.07731 -5.89477 3.17366 -11.3312 -2.73887
592 198 1 4.42377 -1.05004 -3.74381 -2.1654 -10.1748 -12.8586
593 198 2 3.48934 -1.08569 -3.35375 -5.47353 1.98561 6.20262
508 170 1 2.42848 -7.3243 -3.48852 10.4021 3.22893 -4.25118
118 40 1 4.32929 -5.91398 -4.96808 2.71765 11.3744 7.60299
120 40 2 5.2485 -6.27711 -5.28051 -12.5271 -9.72851 2.24985
119 40 2 3.77252 -6.57245 -4.3968 2.44554 -0.595432 0.278962
191 64 2 -1.98769 0.522175 -8.45984 3.1557 2.60776 0.791303
449 150 2 -6.10318 4.5454 -9.67624 2.55543 5.01175 -3.51744
380 127 2 -2.8785 2.74908 -9.22445 9.17645 2.34555 -2.80487
190 64 1 -1.08032 0.079208 -8.60586 -5.86647 -0.292232 -3.10369
192 64 2 -0.318261 0.784011 -8.57548 -1.08608 -1.83211 5.71402
283 95 1 -2.65856 4.15678 -8.46539 0.596717 -7.40472 1.30878
448 150 1 -6.67907 3.77838 -9.35983 -6.42343 -1.99675 9.19445
450 150 2 -7.04292 3.98774 -8.42582 4.74674 -6.42844 5.40469
455 152 2 -3.44674 6.46101 -6.45868 13.8948 2.53734 -5.05083
285 95 2 -3.10449 5.06958 -8.55969 -0.820468 2.42501 7.72244
284 95 2 -2.98025 3.72489 -7.57836 -2.46316 5.5453 -0.80376
456 152 2 -3.02694 6.97161 -8.10261 6.8281 5.90738 19.7272
181 61 1 -4.43832 3.12154 -6.42066 28.7901 6.53676 -22.428
182 61 2 -5.33994 3.57991 -6.50848 -8.01702 -7.83487 15.3738
454 152 1 -3.75037 6.70383 -7.40285 -20.4344 -4.88019 -11.8745
183 61 2 -4.17886 2.59686 -5.55202 -21.9415 5.4 -2.76915
618 206 2 -4.62908 1.89199 -3.31566 -1.00266 1.63323 5.88063
616 206 1 -4.26923 1.67282 -4.24396 0.0479685 0.309329 -2.93468
617 206 2 -3.58656 0.908605 -4.25192 4.66383 -2.3185 6.3866
443 148 2 -5.67918 5.43668 -3.50128 -6.89232 6.00174 -5.46707
562 188 1 -0.0760062 4.16526 -9.56514 3.90529 -1.34391 -6.14509
564 188 2 -1.04786 4.10917 -9.22996 -2.64478 6.22134 4.5804
321 107 2 -0.99568 1.37596 -4.9475 2.31756 0.169034 13.9062
312 104 2 -2.39566 6.24758 -3.32585 5.51859 -8.88677 3.73339
319 107 1 -0.992465 1.99684 -5.74345 3.69816 9.96357 -30.6615
477 159 2 -0.701371 6.51946 -5.36748 1.42158 5.69589 -0.854918
475 159 1 -1.53431 6.80529 -4.83579 -15.624 -1.9913 9.56576
320 107 2 -0.542585 2.93446 -5.68776 -5.45766 -6.50593 17.0026
442 148 1 -6.59725 5.83143 -3.73789 -1.58426 1.24584 7.11715
444 148 2 -6.68021 6.84604 -3.62089 6.25044 -7.26557 -2.56977
620 207 2 2.65712 0.276447 -9.0067 0.964747 4.64062 -4.40573
621 207 2 2.45096 1.9422 -9.02597 -6.20073 -5.82741 5.0944
549 183 2 5.15032 0.0503961 -8.81651 -5.7577 -1.22094 7.16913
619 207 1 3.06791 1.18594 -9.3299 9.48222 -6.34778 -9.88776
306 102 2 2.08422 4.85048 -8.51686 -9.4091 -8.75495 -0.795815
470 157 2 1.72524 6.497 -6.91707 0.110339 -6.14671 0.00410432
469 157 1 1.08721 6.99234 -6.30309 -2.80998 6.08652 -5.2573
150 50 2 4.90592 6.68976 -9.20902 9.93208 8.25876 -9.70859
478 160 1 4.02757 7.2042 -7.9535 2.25954 9.72195 4.36214
480 160 2 4.79706 7.16718 -7.26 -1.89311 3.5415 1.0802
340 114 1 6.16222 7.2529 -6.09206 -13.0581 4.1895 -6.48705
606 202 2 0.410578 2.7862 -8.73056 0.295391 3.8293 9.29664
539 180 2 4.09551 3.87725 -7.74588 -9.84075 -3.06098 3.58103
305 102 2 3.11163 5.89612 -7.86908 8.71454 -0.906254 9.49398
540 180 2 4.55144 2.64921 -8.8026 -2.54142 -0.892825 3.67422
604 202 1 0.69976 1.98095 -8.14229 1.5783 2.76599 -2.20618
605 202 2 0.394449 2.06269 -7.15933 -2.70762 2.50228 -6.62488
304 102 1 2.6442 4.9881 -7.68353 -0.906016 8.39358 -16.5181
632 211 2 2.76314 0.726363 -6.88579 -2.31478 4.26845 -4.34049
631 211 1 2.84536 0.498475 -5.90264 8.00188 8.00416 4.35187
538 180 1 4.62565 3.00175 -7.83926 18.8321 3.46509 1.87823
341 114 2 5.93519 6.39498 -5.57344 12.1454 -2.06883 3.91413
224 75 2 6.39339 4.9267 -3.92905 -2.93869 -7.02708 -14.9085
225 75 2 5.86448 3.87937 -5.20375 9.57544 0.775929 3.99999
223 75 1 5.64264 4.67928 -4.60564 2.01573 13.0167 7.7002
69 23 2 7.24184 2.23331 -6.16483 2.79453 6.57361 -1.70128
67 23 1 7.1547 3.12247 -6.67004 -9.23444 -4.46933 -5.15321
468 156 2 5.10856 1.7868 -6.03818 -8.68638 -8.29514 8.19162
230 77 2 0.942608 4.74487 -6.12185 2.32501 4.87297 12.7399
229 77 1 0.242823 4.46466 -5.42377 -11.1379 -23.1387 -8.13264
231 77 2 0.541915 4.5972 -4.4597 7.85769 6.59995 -4.1328
68 23 2 6.25055 3.09084 -7.17636 3.61025 1.20167 1.99327
85 29 1 3.00477 4.93104 -4.52949 12.1958 -10.4537 8.85692
467 156 2 5.0656 0.514739 -4.87345 -2.83913 12.1071 -5.28572
86 29 2 4.04391 4.92244 -4.55334 -4.33556 10.0147 -3.68447
510 170 2 2.61325 6.42066 -3.65699 -4.8378 1.70419 -2.64701
466 156 1 5.40399 1.46829 -5.10418 16.41 -4.97643 3.46026
87 29 2 2.89929 3.91602 -4.29959 -7.60501 11.198 -0.230412
134 45 2 6.31616 1.83826 -3.29196 -11.38 -1.06095 0.0123313
33 11 2 4.115 2.29226 -3.47506 1.74345 4.13017 -0.731712
32 11 2 2.81733 1.60818 -4.17826 3.4281 13.5891 -3.3405
31 11 1 3.13723 2.4743 -3.70449 -12.6833 -25.1331 3.56617
414 138 2 -1.61024 -2.77356 -3.26463 0.831899 0.701022 -1.53141
95 32 2 -2.04515 -0.0059279 -2.63132 1.56397 2.64942 -12.0903
551 184 2 -3.67855 -1.64211 -0.532052 5.2772 3.07273 13.8606
349 117 1 -1.41438 -3.62203 -1.57542 18.1652 -9.22873 -16.482
351 117 2 -1.92277 -4.44677 -1.24383 -9.67723 4.09424 0.255278
613 205 1 -6.09252 -4.82994 -1.46388 -5.36009 -11.9291 8.80573
614 205 2 -6.14041 -3.99028 -2.01261 1.27311 9.66241 -4.64739
550 184 1 -2.77269 -1.86237 -0.0585183 0.219251 3.19151 -1.33405
552 184 2 -2.64961 -1.40294 0.857552 -8.24699 4.52744 -4.68047
350 117 2 -1.64054 -2.76417 -1.05843 -10.863 -2.45937 9.39544
615 205 2 -5.54182 -4.66491 -0.621391 4.78 3.11758 3.38219
523 175 1 -4.01544 -4.20698 0.780605 1.65655 -5.074 2.23499
43 15 1 -3.2046 -5.89211 -1.58103 7.75515 21.4379 -17.9315
437 146 2 -3.05764 -6.14469 1.40271 9.55786 -2.68785 1.0343
438 146 2 -1.85129 -6.76552 2.34143 7.45619 -0.512681 6.72419
91 31 1 -5.28035 -0.922338 2.09129 -10.2622 -4.17624 5.52279
436 146 1 -2.18643 -6.69151 1.38888 -19.9944 6.73402 -1.09251
174 58 2 -3.80342 -5.18905 -3.26043 -10.9439 0.833315 11.0052
92 31 2 -4.48275 -1.21423 2.66369 3.7122 3.29741 -3.31086
488 163 2 -0.136523 -5.12341 -1.7298 -6.44088 -1.9503 0.447364
356 119 2 -0.34374 -7.10156 -0.910672 -2.48523 -3.87233 0.0895188
386 129 2 -6.9195 -6.22933 -0.43637 -4.9952 1.44441 -5.06068
385 129 1 -7.19702 -7.00749 0.170517 8.08655 -5.73447 5.45804
45 15 2 -3.49293 -5.74927 -0.616485 -1.93007 -7.25108 4.90178
44 15 2 -2.90076 -6.82511 -1.85148 -1.1541 -15.7224 9.36252
313 105 1 -5.31088 -1.22794 -1.04732 -7.08573 -6.19705 -11.1026
314 105 2 -6.14859 -1.42251 -0.514315 1.27874 3.92775 17.1838
315 105 2 -5.61283 -1.55531 -1.96328 9.61975 1.51547 -11.6581
525 175 2 -4.04052 -4.31585 1.80789 -2.85968 -8.25634 4.19362
524 175 2 -3.41187 -3.38499 0.720505 -1.03255 4.81312 -16.2776
37 13 1 -2.50646 -0.431135 2.50306 14.848 6.71454 -2.69668
38 13 2 -1.93134 -0.920411 3.20451 0.373926 -1.75145 -2.22806
512 171 2 -6.63698 -1.92937 3.11975 -0.745634 3.16491 -5.30993
238 80 1 0.829448 -1.63379 -2.53685 2.87517 -5.39572 -0.455539
240 80 2 1.41864 -2.36053 -2.094 2.08583 5.58327 -4.85303
20 7 2 6.17819 -4.97589 -1.29318 -8.03275 3.37305 -8.39157
546 182 2 5.17438 -0.897239 -2.18032 -2.84557 12.3684 -22.2403
544 182 1 5.34271 -0.387464 -1.31625 4.38565 0.709562 32.5434
19 7 1 5.66821 -5.50712 -2.03187 2.50998 -13.4459 5.67022
21 7 2 5.45606 -5.01876 -2.89586 2.96482 4.34339 1.31628
511 171 1 7.16722 -2.31549 3.15276 4.63226 -6.99978 -2.51271
513 171 2 6.71026 -2.04723 2.28219 0.211726 5.89666 -1.01157
509 170 2 1.83584 -7.19555 -2.67125 -3.48159 -10.4609 0.0450964
248 83 2 5.29899 -0.864846 0.08931 0.298317 1.10452 -0.399355
157 53 1 6.17586 -4.13348 0.253416 -4.49757 5.69756 4.14582
158 53 2 5.51831 -4.78774 0.701812 0.59584 -4.52871 -0.642786
159 53 2 6.05156 -3.23748 0.719453 -0.302106 2.69848 -4.64643
247 83 1 5.32773 -1.21543 1.07516 5.66009 -9.52482 29.8462
487 163 1 0.409298 -5.98891 -1.80492 16.1462 21.6591 -6.28822
489 163 2 1.28137 -5.67119 -2.24767 -7.66762 -5.02346 3.26917
373 125 1 2.92225 -2.63572 0.834003 -9.22754 9.56132 21.694
374 125 2 2.04828 -2.83383 1.29988 -6.42585 -8.01165 -6.13219
375 125 2 3.37136 -1.99056 1.48598 12.291 -1.67625 -12.1495
432 144 2 4.94092 -2.66005 3.05558 15.7318 -1.8323 4.35517
419 140 2 3.66604 -6.38367 0.991331 -5.35753 -0.340465 6.08085
194 65 2 3.34327 -2.60969 -0.830713 -15.6441 -5.97933 7.47551
195 65 2 4.09027 -3.23877 -2.08759 -6.41553 -3.99036 -3.6447
308 103 2 5.40637 -7.1202 -1.37364 -0.606705 3.75144 -2.74931
117 39 2 5.74005 -6.96097 2.22892 -3.25985 -7.55192 6.25034
418 140 1 4.32815 -5.81168 1.51785 8.13644 11.2138 11.5537
420 140 2 3.8716 -5.22793 2.23904 3.18337 -8.94412 -13.9179
193 65 1 3.1564 -2.98137 -1.77669 15.3312 3.62909 -9.50736
577 193 1 1.79083 -7.28101 1.6889 19.2265 0.395778 -18.46
578 193 2 1.49424 -7.25242 2.67281 -12.9239 -0.01117 -4.99685
348 116 2 0.525319 -0.298842 -1.75101 0.864214 4.73284 -6.34299
579 193 2 1.1244 -6.86454 1.03348 -4.78698 -2.96836 10.8841
347 116 2 0.493929 -0.0396364 -0.21463 1.20944 13.7437 6.77015
249 83 2 5.2481 -0.44744 1.74885 5.43481 1.15214 -5.48338
310 104 1 -2.84375 5.99452 -2.42706 -14.509 5.53109 3.97874
311 104 2 -2.49858 5.09826 -2.04065 7.46215 3.2326 -13.4908
409 137 1 -5.58531 6.22029 2.01266 0.649941 4.34304 -27.5803
410 137 2 -5.45309 6.9379 1.28092 -6.8126 -6.86058 13.9179
357 119 2 -1.35164 7.07084 0.348816 4.26533 8.06628 -6.19096
355 119 1 -0.59054 6.83484 -0.317786 9.37537 -10.7492 4.15886
151 51 1 -1.1614 1.91174 2.03177 -6.41233 -11.6437 -7.30277
152 51 2 -1.52973 1.79716 1.08543 4.82711 2.1493 1.54405
153 51 2 -0.925403 2.89137 2.13447 3.41998 10.0054 4.65924
277 93 1 -5.32845 2.49923 -1.61378 -15.0641 1.47304 -17.2534
279 93 2 -5.40585 3.40563 -1.10237 6.19615 -12.9659 -2.12527
278 93 2 -4.8539 1.70717 -1.19613 3.15304 5.54127 14.3019
104 35 2 -3.95671 4.03107 0.809615 5.82711 6.74445 2.17732
411 137 2 -5.8171 5.36482 1.48103 -3.72982 5.12126 9.41218
103 35 1 -3.2299 4.4077 1.42471 0.838362 -6.34307 -0.126673
105 35 2 -3.67671 4.78325 2.26764 -1.74107 2.07253 0.420886
93 31 2 -5.19139 0.0492786 1.8145 2.70471 -1.45159 0.056149
401 134 2 -0.930895 3.33566 -2.31415 -6.32345 4.75703 8.00944
402 134 2 -2.16957 2.64166 -3.10223 -7.31271 4.69007 0.569003
371 124 2 -0.360809 6.29974 3.06321 6.07675 -0.678436 -12.7574
565 189 1 -0.515473 4.90065 2.2329 4.60852 -6.01285 -1.81655
109 37 1 -5.34529 5.23095 -1.14617 18.4778 9.81846 -18.6953
111 37 2 -5.91383 5.93735 -1.61987 -4.10057 -6.53349 11.4139
110 37 2 -4.41314 5.32122 -1.60006 -7.59179 -0.557544 12.4716
567 189 2 -1.4691 4.80505 1.85635 -5.33726 0.839042 -4.59482
358 120 1 -6.73925 3.61444 1.2228 -13.0755 -11.9101 10.4268
360 120 2 -6.9634 3.19138 2.13342 7.68242 6.9156 -2.32885
400 134 1 -1.96418 3.32783 -2.37772 16.118 -8.1837 -4.40738
135 45 2 -7.35757 2.02103 -2.12685 -7.29928 1.79725 7.22003
39 13 2 -2.02156 0.478034 2.36107 -5.33534 -4.48471 0.9693
250 84 1 0.86686 2.91232 -1.98963 -9.16615 -1.76957 -7.21127
251 84 2 1.68317 2.93334 -2.60037 8.18351 1.34463 -4.18248
252 84 2 0.58947 1.91711 -1.86225 3.56272 4.11264 11.5074
545 182 2 5.55329 0.624054 -1.36391 0.201881 -6.40332 -21.2154
387 129 2 6.84618 7.11739 -0.212956 -2.31998 5.63607 -3.94894
359 120 2 7.13779 3.54094 0.694081 6.75696 6.95746 -0.758908
115 39 1 6.26626 7.05675 2.72951 -6.08473 12.0573 -9.02801
307 103 1 5.04466 6.70123 -1.12328 7.82495 4.3979 1.42628
309 103 2 4.10631 6.68721 -1.51722 -6.28653 -9.78105 2.41444
566 189 2 0.132718 5.12839 1.46676 -6.82197 -0.754728 1.66722
133 45 1 6.37701 1.94193 -2.2741 21.9246 6.89954 -6.0993
176 59 2 3.30588 3.21538 0.15878 5.77476 -4.67579 1.12001
262 88 1 5.172 3.77708 -0.10958 -7.99571 5.52891 22.8375
263 88 2 5.13255 4.80955 -0.200638 6.24871 -11.8352 -13.4487
264 88 2 5.7346 3.23049 -0.757485 -0.119538 7.21186 -15.6465
175 59 1 2.56447 2.52184 0.303332 8.46871 14.792 -2.29471
177 59 2 1.94357 2.70869 -0.492548 -8.10089 -6.96116 3.17633
257 86 2 2.32133 6.18587 0.115392 10.3628 -4.48951 -2.18129
258 86 2 1.19587 6.15513 -0.948184 -13.1118 -6.24589 -10.5604
346 116 1 0.395362 0.486032 -1.07966 -6.21276 -20.9094 0.119868
256 86 1 2.17542 5.90847 -0.858801 -1.31572 14.0449 17.5175
318 106 2 3.6099 2.57151 1.95435 5.80876 16.9229 3.62085
116 39 2 7.17745 7.13194 2.25624 0.471321 -8.97074 6.73318
397 133 1 1.64652 0.51889 2.53947 7.03721 -30.5316 5.35908
398 133 2 0.907406 1.15805 2.81299 1.58503 12.8914 -7.59658
316 106 1 3.91093 2.41982 2.92532 -3.74032 -43.7467 3.66404
399 133 2 2.5082 0.928347 2.15575 -13.5014 12.4367 2.90246
574 192 1 -3.59255 -4.5008 3.36558 -3.52764 -1.71343 3.65234
575 192 2 -3.2809 -5.14507 4.10998 0.607331 -6.38678 1.61975
576 192 2 -4.10564 -3.80444 3.90297 0.832144 10.434 -4.50632
520 174 1 -0.956386 -1.48494 4.53322 -10.9915 4.40001 -2.56676
521 174 2 -0.714955 -0.594363 4.97672 3.58881 -7.51651 0.866408
522 174 2 -0.169357 -2.13838 4.58228 2.08715 5.73952 0.591075
289 97 1 -1.35171 -0.731672 7.69924 11.9168 7.00368 0.621395
165 55 2 -6.3577 -2.08901 6.32745 -7.05728 -1.33344 5.6376
333 111 2 -2.86512 -4.28904 9.48182 -2.88208 -6.96462 -3
213 71 2 -2.93184 -1.80777 4.43692 -9.33834 5.58672 5.92029
331 111 1 -2.22889 -4.70882 8.79042 5.26683 7.46068 3.97039
332 111 2 -2.66556 -5.3681 8.15467 -8.49888 2.40638 1.39537
211 71 1 -3.95396 -1.92985 4.53628 -8.46308 -8.76339 6.46295
212 71 2 -4.50332 -1.11767 4.84351 12.1376 1.32876 -3.34462
163 55 1 -5.83659 -2.89559 6.66448 10.1768 10.2514 -9.10444
164 55 2 -5.073 -2.99228 5.98851 -0.220785 -6.08579 4.61266
222 74 2 -2.28534 -6.67638 5.3989 6.55596 4.62651 -8.06034
221 74 2 -3.67275 -6.66512 6.06942 -12.7446 12.4167 -1.59459
220 74 1 -3.09483 -6.05818 5.46386 4.23985 -22.6481 14.1398
53 18 2 -7.16391 -0.10861 5.89119 -9.40701 0.938264 -4.94311
290 97 2 -2.22696 -0.221516 7.44417 3.07496 -4.09313 2.20451
291 97 2 -1.44745 -1.74315 7.67901 -6.88098 -2.65846 -0.948078
560 187 2 -4.97881 -2.34393 8.23265 1.57695 10.9283 13.304
559 187 1 -4.64316 -1.82556 9.07672 -6.16739 -19.636 -27.1447
203 68 2 -0.886903 -7.05221 8.63502 2.85305 0.938268 21.9454
408 136 2 -0.228166 -4.71056 9.78307 0.516314 -5.07729 -6.19404
498 166 2 -4.7732 -0.264953 9.1673 -1.36213 -2.84654 3.21775
561 187 2 -4.30946 -2.54611 9.73575 -1.26486 0.241187 7.85498
536 179 2 6.8723 -3.43179 4.39462 -1.17459 1.21349 12.3934
537 179 2 7.00809 -4.03199 6.03748 9.07083 6.46631 -7.11903
535 179 1 6.42346 -3.90291 5.21101 -10.9049 -13.0575 1.58879
431 144 2 4.76374 -3.71795 4.41569 16.9961 10.48 -6.36596
430 144 1 4.31796 -3.19892 3.6446 -38.0189 -2.78863 1.06704
506 169 2 1.79078 -0.852837 3.68148 7.31257 0.440524 -0.125814
507 169 2 2.82064 -2.1119 4.28043 1.39414 0.578987 -13.1304
146 49 2 3.55748 -6.69965 4.88656 -5.45786 -0.00961117 3.38535
534 178 2 1.16788 -5.20255 8.30089 8.16921 -0.163408 3.9352
532 178 1 1.72324 -4.61482 7.65533 -14.9275 1.80352 -0.0428562
533 178 2 1.14619 -3.77783 7.54621 7.67257 0.131782 0.851869
185 62 2 3.30526 -4.87406 7.7073 1.6559 -0.208089 -11.203
13 5 1 0.840663 -2.01867 9.12998 -19.2077 -12.4027 -12.5228
14 5 2 1.72114 -1.79225 9.54795 13.1641 8.20508 9.69336
184 62 1 4.33973 -5.01178 7.70481 11.0329 0.503759 1.06574
276 92 2 2.75765 -1.72835 5.90059 -14.0464 5.53813 4.51427
274 92 1 3.29803 -1.64679 6.77004 27.5424 1.96462 -2.66904
366 122 2 5.21131 -5.15824 9.08713 6.5107 -1.97189 -2.35306
186 62 2 4.79905 -4.965 6.7824 -12.423 2.9411 9.99796
505 169 1 1.99365 -1.52434 4.4422 -5.81858 -6.00823 2.24203
275 92 2 2.78106 -1.66481 7.63881 -10.598 -1.94976 0.295558
15 5 2 0.210215 -1.21768 8.99273 10.3278 -2.33579 1.80663
607 203 1 5.78578 -0.798487 5.6378 -8.76895 -14.2144 38.7918
608 203 2 5.54208 -0.575897 4.6664 11.1062 5.995 -4.87251
609 203 2 4.91704 -1.08238 6.12729 2.02074 -1.21874 -5.37176
439 147 1 6.34184 -0.549782 8.30256 -6.52617 -3.45591 0.137844
440 147 2 6.34489 -0.722577 7.28724 -3.47297 -0.735646 3.82494
406 136 1 0.303078 -5.58986 9.78479 -4.574 7.22633 2.46968
301 101 1 4.08742 -2.17088 9.51565 -14.5297 -10.7053 4.0062
302 101 2 3.97565 -3.13402 9.16001 3.99964 13.128 2.9919
303 101 2 4.79953 -1.67904 8.97673 9.72032 2.31817 -3.47763
372 124 2 -0.456683 6.948 4.48885 -1.5687 6.9705 8.83094
370 124 1 -0.133559 7.18068 3.54548 -5.12095 -1.01657 6.30384
61 21 1 -3.41163 0.788112 7.24749 -0.561707 1.03317 -8.37804
266 89 2 -4.61913 6.03486 6.56729 -1.08275 8.11074 0.234126
429 143 2 -5.20924 5.36944 4.08756 -11.143 -0.219862 -13.9899
428 143 2 -5.07089 3.77022 3.41323 -15.3438 8.45798 2.73982
427 143 1 -4.65495 4.52626 3.95798 32.467 -12.4348 17.1823
62 21 2 -3.62861 0.958772 8.24058 -4.21038 4.00548 0.962487
327 109 2 -3.54905 3.47874 5.06737 8.64777 8.14206 -2.7771
457 153 1 -4.65495 3.41571 8.95252 2.65193 8.53784 12.1605
459 153 2 -4.70088 2.70064 9.69071 0.921141 -1.61317 -13.2373
255 85 2 -5.98908 3.3112 7.71693 5.30177 3.19276 -1.62124
253 85 1 -6.68443 3.30745 6.95971 12.0902 -4.79521 -2.37645
589 197 1 -1.48231 6.33339 5.65829 -12.0887 -13.3299 16.735
590 197 2 -1.82897 5.51102 5.13599 3.97938 6.38091 3.42587
591 197 2 -1.72175 6.13657 6.64348 -3.44663 -2.42675 -12.5591
202 68 1 -0.885258 6.70519 8.41511 -6.81432 13.3338 -13.7858
204 68 2 -0.714598 6.79107 7.42144 12.6453 -10.0942 -5.17642
325 109 1 -2.61543 3.26049 5.44983 -3.66057 -0.569974 -3.11794
326 109 2 -2.70201 2.3542 5.90164 0.50717 -3.87062 7.67121
458 153 2 -3.73968 3.87935 9.09822 0.111232 -0.33269 -4.57063
384 128 2 -6.79385 3.32349 5.23118 6.32111 -3.77255 5.22231
52 18 1 -6.25803 0.35335 5.81139 13.5953 4.28514 10.1764
382 128 1 -7.0815 3.11522 4.26603 -20.3279 4.70093 -6.05948
54 18 2 -6.28394 1.26389 6.29299 -3.95067 -6.59877 -7.13945
451 151 1 -2.22346 4.65283 9.68742 -7.13248 -6.29115 1.07669