ITEM: TIMESTEP
15000
ITEM: NUMBER OF ATOMS
648
ITEM: BOX BOUNDS pp pp pp
-7.3408673539256259e+00 7.3408673539256259e+00
-7.3408673539256259e+00 7.3408673539256259e+00
-1.6313038564279669e+01 1.6313038564279669e+01
ITEM: ATOMS id mol type x y z fx fy fz
142 48 1 -2.22026 -4.29608 -12.9385 -15.7334 -6.8537 -21.4397
143 48 2 -2.09954 -4.67414 -12.0042 1.536 11.5308 6.14334
492 164 2 -4.62776 -1.73926 -15.159 -12.0069 -1.81014 -13.3385
490 164 1 -5.1137 -2.44208 -15.7561 29.8638 -1.00021 41.9858
491 164 2 -4.62139 -3.28358 -15.4023 -17.2429 5.51087 -13.9383
424 142 1 -4.12703 -5.9338 -13.892 -10.3276 9.82221 6.48806
426 142 2 -5.03246 -5.68312 -13.4453 10.0668 1.27515 -2.05423
281 94 2 -6.90219 -1.78795 -15.2518 1.77144 -6.91216 -5.33755
636 212 2 -7.11729 -2.63118 -10.2671 -2.28362 -2.92861 5.81723
635 212 2 -7.31667 -1.49144 -11.4018 -10.3292 -1.23191 4.51195
308 103 2 -0.700266 -3.20198 -10.4862 -7.36814 -0.93169 -2.274
31 11 1 -0.697799 -2.14084 -12.232 27.0956 -9.89172 -1.47914
33 11 2 -0.852267 -1.2104 -12.6395 -1.10165 7.39968 -0.832015
405 135 2 -0.114712 -6.06763 -15.6667 1.9261 -12.232 8.49597
145 49 1 -6.5146 -5.18681 -12.7911 1.33334 -2.98452 15.2722
469 157 1 -3.67441 -0.996468 -13.5512 16.7578 8.43844 -22.3835
470 157 2 -3.3439 -0.0105835 -13.4792 -15.0932 -17.1982 7.08459
610 204 1 -5.22084 -7.17219 -16.0613 1.58321 6.27376 -1.49207
425 142 2 -3.40035 -5.22448 -13.66 -2.98723 -10.5161 0.858535
120 40 2 -6.65934 -6.16073 -9.79073 8.38604 3.28832 3.2299
146 49 2 -6.23262 -5.12457 -11.8026 6.23717 -1.84075 -8.10631
507 169 2 -6.1698 -0.0429258 -10.9831 0.189525 3.36496 -20.3355
191 64 2 -0.0377949 -1.42411 -10.5301 0.17186 5.16952 -3.15096
505 169 1 -6.27106 -0.0766314 -12.0284 -2.77201 -17.0656 32.6592
144 48 2 -2.3601 -3.27824 -13.0434 10.6085 -8.17639 14.6343
471 157 2 -4.39864 -1.20891 -12.8895 -10.2481 4.47274 13.7664
118 40 1 -5.63578 -6.14717 -10.0093 -23.3639 9.81061 -3.69045
119 40 2 -5.42062 -7.13107 -9.83493 11.9627 -6.01222 1.99595
612 204 2 -5.24211 -6.77356 -15.1118 11.2168 0.706144 -5.13557
223 75 1 -0.499099 -0.871871 -16.1304 27.226 -2.04211 14.1059
634 212 1 6.8494 -2.24927 -10.912 13.2155 5.58215 -20.9886
147 49 2 7.18953 -5.43982 -12.7829 -7.02015 3.60722 -2.14715
32 11 2 0.0916263 -2.58153 -12.7477 -19.8253 8.51322 7.35027
11 4 2 6.1239 -2.36309 -13.9106 -21.9206 -11.2748 -12.2729
12 4 2 5.99465 -2.62488 -12.398 -10.5498 -1.78443 8.12643
393 131 2 0.458401 -3.99734 -15.5954 -4.86584 -16.9564 -6.34435
391 131 1 0.799672 -3.09407 -15.3213 19.3 25.6805 7.70861
10 4 1 5.43248 -2.78367 -13.2472 36.2263 18.2886 -6.79649
361 121 1 0.489156 -7.30542 -14.3865 -4.17605 2.15296 -0.822793
516 172 2 6.91296 -6.59169 -14.2549 8.62132 14.5487 2.56004
170 57 2 4.03441 -3.28662 -13.0151 -16.7191 -16.1861 12.6445
169 57 1 3.14229 -3.73031 -12.6237 14.0126 -3.35596 -21.5812
171 57 2 2.86099 -4.49798 -13.2608 3.33207 12.1936 10.8409
83 28 2 4.34221 -0.175701 -12.7563 4.65884 -13.0523 -13.7363
515 172 2 6.51668 -7.33668 -15.6224 -5.20929 -1.0827 -7.02977
206 69 2 2.19162 -0.697368 -11.7708 2.50358 -5.54717 -6.77824
205 69 1 2.83088 -0.926345 -12.5444 -1.6623 7.04943 13.3442
207 69 2 3.10659 -1.91448 -12.5148 -9.40958 -1.73361 1.67159
84 28 2 5.7768 -0.451059 -13.7576 -14.9602 -0.663767 9.34039
190 64 1 0.608411 -0.705121 -10.1935 5.57043 8.78663 -2.54363
335 112 2 6.0329 -5.59714 -9.95981 -1.81881 2.16994 8.4833
392 131 2 1.79207 -2.96279 -15.5843 -7.4316 -8.24054 -0.987588
631 211 1 3.63471 -2.95052 -16.1207 -12.4383 11.8531 3.93046
633 211 2 3.91882 -3.15611 -15.1582 7.84578 2.95596 -9.12004
189 63 2 3.54535 -6.28966 -16.1707 4.69692 0.478603 -15.611
187 63 1 3.5575 -6.45532 -15.1784 -10.731 4.87872 30.2097
259 87 1 5.33138 -4.55957 -10.9403 4.74932 -1.72661 -2.66564
260 87 2 5.9858 -3.76721 -11.0254 -2.15967 2.26097 7.54692
261 87 2 4.4601 -4.25168 -11.3827 -4.97943 -2.89055 -1.38117
387 129 2 2.5996 -6.37082 -9.95865 9.62407 -0.0685846 -21.1302
280 94 1 6.77548 -1.59363 -15.3112 9.87196 13.3416 7.41425
282 94 2 6.67717 -0.93454 -16.0998 -9.34891 -10.3419 3.55477
224 75 2 0.114638 -1.591 -15.6843 -19.6396 -8.71363 -6.10923
225 75 2 0.0291313 -0.0391421 -15.8968 -2.08037 15.2071 0.348364
13 5 1 -0.7091 0.451997 -13.2813 -1.51835 13.148 -16.6154
506 169 2 -5.64577 0.619342 -12.418 8.03758 9.08242 -3.73299
141 47 2 -4.84484 2.19237 -13.4673 -23.5824 8.17101 -5.99215
139 47 1 -4.1426 1.71329 -12.9257 13.0531 -1.43966 12.3463
621 207 2 -1.95109 1.54783 -11.6404 -1.76859 -3.23977 13.0484
611 204 2 -5.58008 6.56562 -16.0108 -13.4141 -15.0134 -2.78062
201 67 2 -5.06475 2.82511 -10.9388 -12.8852 -11.1872 27.4337
555 185 2 -1.99774 4.33761 -12.9254 -1.02432 -1.11021 4.86005
553 185 1 -2.34472 3.43138 -13.2438 14.6935 24.2388 9.31954
554 185 2 -1.81962 3.24527 -14.0971 2.28918 -6.86814 -12.8308
140 47 2 -3.45925 2.51832 -12.8334 -0.511987 -21.6249 -4.92278
619 207 1 -1.88331 1.8128 -10.6454 6.06606 10.905 -16.5732
65 22 2 -6.77227 3.68022 -12.5856 -4.80965 -7.32897 -8.8738
620 207 2 -1.1941 2.56983 -10.636 -6.23878 -3.00202 4.88187
199 67 1 -5.58647 2.72607 -10.0311 14.8419 20.478 -34.3476
200 67 2 -6.39924 3.34319 -10.1215 -1.50273 -9.91461 1.70445
64 22 1 -6.27386 3.27921 -13.3963 -2.36546 -0.464667 -2.95978
363 121 2 -0.230145 6.9395 -13.8143 -0.0655683 -2.90857 5.2626
15 5 2 -1.30837 0.67385 -14.0873 5.09594 -6.63437 10.7053
66 22 2 -6.93452 2.72171 -13.9686 -3.1885 7.66483 4.3147
294 98 2 -0.235149 5.41614 -11.1541 -9.9136 -9.39393 7.34347
183 61 2 -1.24096 3.95758 -15.9418 -1.65576 -1.19308 -3.10687
181 61 1 -1.17129 2.95121 -15.6891 -13.0798 6.41827 -4.19929
423 141 2 -1.2772 6.43585 -15.7747 -3.80667 -14.0779 -7.45144
324 108 2 -7.09538 0.898026 -15.8587 -6.71568 12.8377 3.99405
539 180 2 -6.21457 4.36055 -15.7207 -2.82689 5.36946 8.71214
362 121 2 1.39581 7.1548 -13.9814 0.367499 2.80392 -5.88457
514 172 1 6.54997 7.22892 -14.6004 -4.98354 -11.7635 4.38046
14 5 2 0.148735 1.00428 -13.4093 -4.30789 -7.36629 5.66205
82 28 1 5.16732 0.211439 -13.2522 8.91465 19.9517 -5.46304
465 155 2 0.862199 0.922086 -10.7731 -4.26584 -2.80761 5.81881
455 152 2 5.92805 6.78449 -12.8213 -6.38529 0.487121 16.5433
454 152 1 5.40008 6.68409 -11.9247 -2.77674 2.62103 -3.64423
293 98 2 1.01066 5.78727 -12.0829 7.84677 -6.93134 -7.27708
98 33 2 5.51403 3.19842 -11.7146 13.3478 -1.12169 -7.42111
97 33 1 6.42807 3.47896 -11.3299 -19.5325 -1.87585 8.87112
188 63 2 3.80072 7.29015 -14.8708 6.21682 0.238312 -9.52929
292 98 1 0.034743 5.51989 -12.1318 0.147356 9.54181 -0.126062
226 76 1 3.16458 5.07823 -12.3253 8.15465 8.40803 15.3761
228 76 2 3.53732 4.17527 -11.9704 -12.6474 -0.469123 -9.36239
227 76 2 3.84717 5.77371 -11.9713 -0.14654 -2.65853 -12.7362
463 155 1 1.14131 1.91411 -10.8279 -6.16158 19.3426 18.5603
464 155 2 0.724297 2.44261 -10.0251 11.6807 -15.1062 -21.5474
53 18 2 2.55629 3.93011 -13.9074 -0.0120775 -2.68908 5.44726
52 18 1 2.8065 3.61187 -14.8457 1.41903 13.0948 2.78204
59 20 2 5.8018 2.73245 -15.4695 4.64206 7.35412 -2.6506
58 20 1 6.45204 2.10192 -14.989 -11.721 -8.20801 8.08639
99 33 2 6.12941 3.72485 -10.367 8.73765 7.98558 -3.15229
477 159 2 2.60719 2.30095 -11.4786 23.7544 1.48879 -8.04506
475 159 1 3.59688 2.48391 -11.8255 -8.74679 -17.6679 0.240763
476 159 2 3.91592 1.69948 -12.4303 -6.80681 13.0258 9.29856
60 20 2 5.86227 1.4712 -14.4213 5.21579 1.62113 2.76575
456 152 2 5.69131 7.2621 -11.127 5.53548 -3.50038 -13.4445
581 194 2 0.238199 2.37186 -15.4753 -0.609671 -8.53605 -2.10393
580 194 1 1.06884 1.73805 -15.5012 9.28434 -7.5696 -9.69268
582 194 2 1.88285 2.35548 -15.3094 0.129041 1.88296 6.68155
54 18 2 3.44018 4.35218 -15.1671 3.81426 -11.6997 -9.08811
198 66 2 5.75985 5.2495 -16.1603 9.26197 7.13976 0.423779
309 103 2 -2.0039 -3.2898 -9.40701 11.7732 -4.84481 -11.0597
307 103 1 -1.07579 -3.70601 -9.67903 2.86998 -3.19068 4.65092
268 90 1 -3.39114 -2.56618 -9.29095 -9.78961 -8.22637 7.41045
236 79 2 -0.156422 -5.26364 -9.03456 -15.4829 -10.6046 -13.25
69 23 2 -4.6532 -0.0830138 -8.83897 -3.95411 9.72307 -6.35786
87 29 2 -4.67212 -4.68651 -6.19271 2.79855 -8.81569 -0.0155236
8 3 2 -5.25534 -3.39581 -3.70887 -1.1191 -1.70582 5.88779
270 90 2 -3.28392 -1.54951 -9.21528 -2.11659 8.11878 -2.85841
85 29 1 -3.82686 -5.11785 -5.8002 -8.97069 1.97954 -4.84588
86 29 2 -3.0442 -4.51898 -6.137 -4.68454 -1.41923 5.7097
7 3 1 -4.94348 -4.34005 -3.43331 7.01231 -3.55009 -7.35001
9 3 2 -4.6446 -4.82483 -4.3013 -0.686351 6.75779 4.37011
269 90 2 -4.36413 -2.84723 -9.52423 7.07578 6.9745 4.87988
549 183 2 -0.586596 -3.73454 -6.82561 -3.90836 11.6906 -4.71624
37 13 1 -6.11723 -3.47293 -9.29519 9.16943 -12.4172 -15.2613
39 13 2 -5.95946 -4.49501 -9.45152 1.84934 14.5118 5.88387
38 13 2 -6.59071 -3.30777 -8.405 -1.06885 -6.5744 11.6419
179 60 2 -0.600828 -4.06146 -3.85492 1.9828 2.34219 4.70751
21 7 2 -2.84504 -2.89555 -7.47432 3.38582 -0.60113 -4.95428
19 7 1 -2.39675 -3.08731 -6.57153 7.855 -7.84306 -14.0836
20 7 2 -2.72689 -2.34416 -5.95396 -4.36299 12.8093 8.76758
412 138 1 -0.312191 -0.0801386 -4.83009 -12.1334 2.40393 -1.65274
414 138 2 -1.20395 -0.181803 -5.33284 12.1646 2.73663 -0.000842946
133 45 1 -3.61835 -0.985921 -5.3816 24.7578 -20.0192 -15.3127
135 45 2 -4.43021 -1.30435 -4.86558 -17.3347 -0.725572 11.3848
235 79 1 -0.000679208 -6.12715 -8.48618 7.28681 29.9086 1.84711
94 32 1 -7.28766 -3.9172 -6.75531 -3.49309 -3.78823 -8.82512
165 55 2 -1.25411 -7.31178 -7.75513 -10.68 10.4103 -2.29071
164 55 2 -2.82772 -7.06007 -7.03359 -4.70146 11.9391 -5.95229
435 145 2 -6.3686 -0.248151 -4.62995 1.32153 2.9642 0.391063
246 82 2 -6.87714 -1.92734 -4.40142 -2.90994 -4.15309 -10.3984
545 182 2 -2.8467 -6.70901 -3.79121 -13.0576 3.61527 11.9979
194 65 2 -0.822004 -0.689418 -3.51146 6.94905 -11.3196 16.2309
244 82 1 -5.92038 -1.77764 -4.05963 -14.3375 2.44241 4.24716
336 112 2 5.93009 -6.2575 -8.41379 -3.15673 3.96663 4.80514
334 112 1 6.52523 -6.18961 -9.25402 6.49916 -5.28082 -19.3967
237 79 2 0.230391 -5.61183 -7.6394 0.0489956 -8.36034 15.0396
178 60 1 0.161689 -4.63505 -4.20989 5.19912 -12.8989 4.02405
180 60 2 0.916859 -4.76002 -3.5021 -5.43116 12.5105 1.98282
548 183 2 0.438996 -4.01927 -5.6359 6.18804 -0.443327 3.79073
547 183 1 0.415641 -3.71252 -6.62335 -1.62228 -5.51652 -11.342
305 102 2 5.17987 -1.8004 -4.31962 4.69001 3.42766 -9.14145
300 100 2 4.28849 -6.36151 -6.50573 18.8974 12.7464 -20.5826
599 200 2 1.6253 -0.328554 -7.08506 3.68636 -6.88504 -7.97316
192 64 2 1.16462 -1.05368 -9.40018 1.42073 -9.18295 -0.750724
306 102 2 6.17472 -3.02445 -4.11023 1.01476 -13.0491 10.5659
304 102 1 6.04023 -2.20235 -4.7009 0.0580311 4.06014 3.71633
229 77 1 2.09262 -2.1216 -8.41217 5.1212 4.82382 -2.39188
230 77 2 2.89477 -2.71414 -8.67263 -13.2391 4.72783 8.39835
231 77 2 1.50635 -2.51759 -7.66564 2.67033 -12.2572 0.0385638
385 129 1 2.60134 -6.03539 -9.01933 -2.83492 -7.02908 8.73188
96 32 2 6.622 -4.50248 -7.10732 5.99428 4.13199 7.34174
299 100 2 4.0527 -5.97281 -8.09163 -2.29847 6.57636 2.09119
95 32 2 7.05692 -3.26874 -6.04403 -6.12111 1.66763 0.454571
298 100 1 4.75846 -5.93178 -7.33479 -22.0403 -17.4332 23.8255
386 129 2 1.59611 -6.04913 -8.78729 -0.00283042 1.86538 7.23368
567 189 2 0.959014 -6.42518 -4.04794 -12.7063 14.4152 2.20642
565 189 1 1.52659 -7.10771 -3.57469 9.66404 -16.129 -13.1264
80 27 2 -2.67289 1.01412 -9.40329 2.457 -7.27627 -15.1684
163 55 1 -1.98275 7.07479 -7.08928 18.8474 -18.538 9.28407
67 23 1 -5.58891 0.145429 -9.21628 -6.60438 -5.78174 -2.21835
68 23 2 -5.6478 1.16905 -9.36352 1.98001 -1.92422 -0.546435
210 70 2 -4.41116 3.68257 -9.01974 3.45514 -5.68433 6.53256
450 150 2 -1.53182 4.78531 -9.13213 -11.1614 -1.11022 17.3158
448 150 1 -0.594302 4.67055 -9.47859 15.6435 5.62762 -29.6458
79 27 1 -2.96923 0.251909 -8.76708 5.67163 3.69938 20.8279
285 95 2 -2.6792 1.97007 -5.0139 -2.20137 -3.23178 -3.70595
283 95 1 -3.26305 1.63373 -4.22958 -5.24492 4.80993 0.0353629
134 45 2 -3.59638 0.0103091 -5.49616 -6.72033 19.3944 7.31039
81 27 2 -2.6117 0.59093 -7.87136 -2.53135 -5.28776 -2.59618
284 95 2 -3.59762 2.49488 -3.77392 5.56584 -1.47336 3.8645
208 70 1 -3.84246 4.02947 -8.23242 -1.28312 0.78948 -1.41669
209 70 2 -4.30915 4.88557 -7.92385 2.54765 -1.40389 -2.27114
433 145 1 -6.7672 0.664567 -4.88751 -2.97129 -2.01353 -4.29344
643 215 1 -5.97832 3.10582 -5.81144 3.48711 -0.959162 -8.93614
623 208 2 -7.18744 5.98798 -6.00794 2.67233 16.7796 16.196
129 43 2 -2.84202 3.03604 -7.15706 4.08517 14.0753 -4.16967
624 208 2 -6.84986 4.4821 -6.47461 3.07255 -11.5032 4.01322
103 35 1 -6.66379 7.04388 -4.58798 4.16084 -8.61353 -17.4849
104 35 2 -5.74595 7.16432 -4.17094 -2.35485 2.47613 5.91364
645 215 2 -5.03721 2.74659 -5.71225 3.53986 2.76223 -0.0548793
644 215 2 -6.58058 2.2694 -5.84225 2.36653 5.40993 5.74623
503 168 2 -6.60623 5.5774 -9.51515 0.975336 -4.15581 -5.6657
502 168 1 -5.83547 6.02607 -9.03379 -8.29843 0.940165 0.206846
504 168 2 -6.30074 6.40937 -8.21024 3.80636 -1.30134 7.31265
127 43 1 -2.20378 2.60404 -6.47221 -5.16727 -24.4572 7.88072
638 213 2 -0.538501 5.92976 -6.09421 -7.38648 4.54335 -13.5123
639 213 2 -0.589785 5.03659 -4.75869 0.986559 -4.71573 0.038816
637 213 1 -0.330174 5.00198 -5.74781 0.314772 -5.07707 22.1566
128 43 2 -1.5113 3.22619 -6.06353 4.73368 16.1223 -10.7157
341 114 2 5.60365 3.19531 -8.65521 -10.445 -20.5913 -5.34341
449 150 2 0.151467 4.5436 -8.78902 -8.17963 -7.61307 10.5551
271 91 1 2.8497 5.50949 -8.25659 16.954 10.7466 -17.2413
273 91 2 2.46212 6.30013 -8.77988 1.60727 -2.98988 5.25528
272 91 2 3.75758 5.23959 -8.68218 -7.97274 -0.347197 6.01879
480 160 2 4.43885 1.81981 -9.76496 1.18346 -5.53302 1.46388
413 138 2 0.422457 0.393897 -5.36304 1.42676 -3.20583 -5.06697
434 145 2 7.2126 0.955225 -4.21217 -2.61372 0.834555 2.93466
600 200 2 1.89682 1.33683 -7.22129 0.108196 -6.40782 2.95544
598 200 1 1.93971 0.510178 -6.61596 -6.09659 16.7912 7.77951
342 114 2 5.91966 4.4742 -7.94256 9.24752 21.2015 4.06163
340 114 1 5.64937 4.17851 -8.8789 6.97478 8.36867 9.89597
648 216 2 6.51092 3.05978 -4.06272 -4.53581 -5.46591 3.51734
622 208 1 7.27368 5.30611 -6.71863 -6.20105 -3.89587 -16.2358
646 216 1 5.99721 3.27659 -4.91825 -7.90525 1.46151 -8.06812
647 216 2 5.73012 4.25426 -4.87898 2.09208 1.97032 -4.54405
105 35 2 7.23798 7.28489 -3.98977 -6.24694 3.88424 9.82175
478 160 1 4.01593 1.98362 -8.85329 -16.3856 -5.83562 16.2094
90 30 2 2.12853 2.6542 -8.5811 1.44769 -0.80881 0.837277
479 160 2 4.49291 1.53033 -8.0409 3.96864 4.77228 -19.7435
89 30 2 2.04897 4.17119 -8.13486 2.11294 16.6509 6.94828
44 15 2 4.5766 6.97974 -4.29377 -25.5741 -16.2832 -16.403
43 15 1 5.00277 7.2956 -3.45543 44.2765 23.0383 8.08298
564 188 2 1.33362 3.61902 -4.64434 -13.2257 -5.75625 -15.7046
88 30 1 1.48718 3.31686 -8.13226 1.0118 -28.1913 -9.66527
123 41 2 6.69436 0.678784 -6.95813 5.07292 -4.63106 -1.45169
562 188 1 2.17856 3.20562 -4.2832 26.9503 4.42502 13.2905
122 41 2 5.93635 1.9761 -6.28033 2.17637 0.305416 -9.67248
121 41 1 6.07941 1.45654 -7.16914 -8.06811 10.2788 16.0135
445 149 1 3.446 5.87297 -5.68801 7.99617 28.8128 20.5833
446 149 2 3.33984 5.02696 -5.15653 -5.4145 -17.5147 -0.899673
447 149 2 3.15175 5.78533 -6.66382 -3.58524 -9.60505 -10.871
563 188 2 2.4799 2.27379 -4.59817 -13.4081 7.69557 -6.39065
566 189 2 1.95477 7.05544 -4.34272 4.41408 -4.42262 9.06239
546 182 2 -3.99006 -5.74609 -2.99379 -3.66258 8.52359 -2.07934
312 104 2 -6.88387 -5.86859 -0.0797964 -9.65748 1.56511 -11.9261
245 82 2 -6.12464 -1.66125 -3.05277 14.6403 -5.67449 9.00923
35 12 2 -6.58851 -1.7526 -0.552385 -2.8457 21.8513 8.86624
558 186 2 -2.76044 -2.85677 -0.390999 -9.44347 -11.6456 -9.3214
34 12 1 -6.40806 -2.30614 -1.37906 -1.17202 -16.7187 -5.87237
115 39 1 -1.17942 -5.64322 1.11505 -12.2199 12.7218 -9.55722
117 39 2 -1.64821 -5.09266 0.388028 -8.62131 -6.2034 5.11659
614 205 2 -4.11051 -4.83556 2.73776 -8.54041 -3.87191 2.87176
615 205 2 -5.33811 -4.82416 1.57702 10.9961 3.81375 17.9796
613 205 1 -4.95316 -4.31558 2.41155 -6.15266 0.229752 -21.8148
557 186 2 -3.76932 -3.63267 -1.55922 4.53688 7.14232 2.03018
556 186 1 -3.1364 -3.74894 -0.758352 1.64601 1.39076 7.56419
195 65 2 -0.48963 -1.27419 -1.86389 15.0524 -4.95709 -2.97877
91 31 1 -5.24869 -5.77782 0.143248 4.73468 16.4501 -5.96425
93 31 2 -4.68184 -4.99537 -0.193227 0.87175 7.22757 2.7065
544 182 1 -3.50818 -6.64827 -2.99665 12.9719 -14.6016 -4.2072
193 65 1 -1.17086 -1.13197 -2.61652 -19.6201 7.73758 -4.97092
2 1 2 -3.5765 -1.34247 1.52943 18.3957 2.89753 -7.3006
3 1 2 -4.38586 -2.60666 2.25 -0.290818 -0.556312 1.2519
1 1 1 -4.27262 -1.58466 2.2214 -22.2382 -6.75672 -1.65309
50 17 2 -2.33547 -0.16652 -0.344666 -9.49179 8.07665 2.31257
116 39 2 -0.336531 -5.08438 1.24369 17.1086 -1.61344 5.21959
36 12 2 -6.95957 -3.14462 -1.21419 0.499417 -1.77408 -9.8449
92 31 2 -4.81329 -6.55697 -0.321747 -2.15389 -18.3208 -0.0465812
364 122 1 -3.67379 -0.194794 -2.15573 -0.60785 5.25627 7.8125
366 122 2 -2.82026 -0.771187 -2.20454 1.01766 0.404166 -7.94466
351 117 2 -1.23354 -7.1582 -0.558795 -3.72758 24.2163 -12.1056
51 17 2 -1.1195 -1.08036 0.149514 0.499365 -0.309745 13.0224
49 17 1 -1.99369 -0.646126 0.480148 5.10833 -12.0332 -14.4148
609 203 2 -2.16819 -5.96429 2.82662 1.56527 2.63131 -17.9282
337 113 1 -6.32504 -7.03859 3.22743 15.4999 -26.9906 -0.217863
319 107 1 -2.02375 -3.02033 2.71239 3.00825 -15.6824 2.7232
321 107 2 -2.2188 -4.02269 2.75407 -1.47491 4.32765 -0.645838
399 133 2 -0.654877 -2.30142 3.17454 -26.6619 -3.66226 -13.9925
402 134 2 -5.15327 -0.30403 2.21328 11.8846 14.2075 4.87815
311 104 2 6.55598 -6.85055 0.183152 -3.49211 9.78608 -14.3296
310 104 1 6.81377 -6.0362 -0.392244 16.7574 -9.81798 25.153
18 6 2 0.700928 -2.80887 -0.326636 -0.424148 21.4265 -0.999332
16 6 1 0.454854 -1.81406 -0.526038 -3.58783 -9.47237 5.08229
593 198 2 6.60254 -4.85555 -2.29275 -6.26052 1.20975 -0.248304
592 198 1 6.00268 -4.1675 -2.76306 -1.4942 -6.31462 -5.54382
594 198 2 5.05887 -4.57074 -2.83502 9.48488 2.59239 5.74547
17 6 2 1.25016 -1.18371 -0.307454 0.955331 -7.51738 -4.67427
148 50 1 6.14313 -1.68714 2.66556 4.04904 -28.6745 -1.52845
150 50 2 6.05087 -0.725098 3.0155 -5.09843 14.2774 1.78329
279 93 2 3.34216 -6.099 3.03694 1.43518 0.615065 -16.062
379 127 1 3.78099 -2.76252 1.53712 -16.9625 -0.454317 1.81597
381 127 2 3.47102 -3.63707 2.00166 8.81204 2.39111 -5.31148
277 93 1 3.04009 -5.19459 2.65936 8.85928 -3.18871 12.7219
301 101 1 1.87981 -4.5549 -2.10141 -8.47959 6.60847 -27.8094
603 201 2 5.05686 -5.03272 -0.23194 -16.6625 -7.66189 -12.1751
303 101 2 1.18157 -4.5839 -1.38388 -3.4799 -2.2674 18.2406
302 101 2 2.72007 -5.07614 -1.87146 11.1168 0.0383435 11.7536
601 201 1 4.11923 -5.28329 -0.611852 1.74008 -6.84216 14.3025
602 201 2 3.78922 -6.14418 -0.148042 10.0066 7.04348 -5.61479
606 202 2 3.17457 -1.37868 0.456937 2.6012 4.36396 -10.5835
149 50 2 6.46293 -1.61617 1.69469 2.69469 5.82694 -2.1844
604 202 1 2.82716 -0.50956 0.00113767 -1.15297 -16.7136 21.5893
484 162 1 7.30965 -0.448247 0.389685 18.9852 -3.00143 3.23692
380 127 2 4.49842 -2.31227 2.1048 9.96649 -0.13415 3.12408
254 85 2 1.3478 -3.48655 1.44263 -1.08799 2.19172 5.24106
253 85 1 1.17853 -4.25193 0.791544 -0.816902 1.04187 -12.1503
255 85 2 2.07439 -4.75288 0.70227 -4.00021 2.36666 4.71963
569 190 2 -4.09183 4.80959 -2.55233 4.9836 0.544335 1.69831
618 206 2 -0.276527 0.866873 -2.24616 -7.61745 -4.9116 -3.8844
568 190 1 -3.632 3.89183 -2.66886 -22.2331 -0.395489 -5.43959
486 162 2 -6.52762 0.0094902 0.781078 -12.1841 -0.89474 1.05766
570 190 2 -4.32062 3.2533 -2.24244 8.2685 -5.41294 3.83983
331 111 1 -3.34339 5.56684 1.04196 8.16811 3.66374 18.5408
523 175 1 -6.26992 4.21068 -0.440485 11.5715 -15.1696 -15.9969
525 175 2 -5.54293 4.89574 -0.726448 -17.077 1.24035 -0.199004
401 134 2 -4.66555 1.34558 2.02414 -1.71599 -4.51222 0.29684
350 117 2 -0.773926 6.66791 0.680715 4.3867 -4.08682 -4.34349
365 122 2 -3.67019 0.410022 -2.98505 5.14611 -0.63997 -8.3633
524 175 2 -6.00077 3.30449 -0.891818 -6.66434 11.7609 13.3421
62 21 2 -0.845295 5.10776 -1.66165 -14.5227 4.30616 3.7368
61 21 1 -1.12969 4.70916 -2.5544 16.0814 -0.268032 -19.2394
560 187 2 -4.56004 1.97407 -0.2198 -0.968224 3.95785 4.75142
101 34 2 -2.5321 2.40251 1.23156 1.66314 -3.69732 5.69297
559 187 1 -4.98733 1.98322 -1.15802 14.3942 -17.7707 -14.4994
561 187 2 -4.51048 1.17275 -1.62392 -13.8602 7.50594 8.31496
63 21 2 -2.13976 4.48949 -2.64752 3.50448 -3.8878 9.57653
349 117 1 -1.12771 6.57724 -0.278006 3.64041 -27.278 15.5152
100 34 1 -3.55944 2.44626 1.11746 -4.48159 7.88548 -9.52118
102 34 2 -3.80676 3.4031 0.82767 4.48478 -3.50125 10.333
369 123 2 -0.772723 2.90638 2.5868 -3.55775 -16.2219 -15.4367
367 123 1 -0.881419 2.21563 1.80935 29.031 12.1136 8.26312
501 167 2 -4.16807 6.8446 -1.90995 -3.74421 -6.0646 -3.54491
499 167 1 -4.63007 6.0466 -1.42756 18.5786 13.7879 11.2676
332 111 2 -2.92617 5.67895 2.00048 -18.3248 -11.0751 -17.544
333 111 2 -2.54965 5.71092 0.427631 11.6791 3.04988 -10.1587
249 83 2 -6.58191 4.18175 2.02904 -18.2935 8.15061 11.5302
339 113 2 -5.98057 6.6585 3.18063 -11.2011 9.17937 -1.9101
400 134 1 -5.44859 0.702165 2.22885 -13.4642 -0.588984 -5.8516
500 167 2 -4.16504 5.89949 -0.507156 -4.91219 2.8587 -4.7698
287 96 2 -2.21499 0.508901 3.12938 -6.60774 -10.8888 6.10133
513 171 2 -0.966081 5.35603 2.83493 -6.24316 -6.67115 15.7367
109 37 1 3.4688 1.42379 -1.70575 -3.30194 -10.3428 7.82045
616 206 1 0.340498 1.66099 -2.19399 15.3034 0.984602 6.0819
617 206 2 0.121625 2.3792 -2.87107 -4.69663 3.95747 -0.923193
45 15 2 4.56265 7.19848 -2.55629 -16.067 -7.41212 6.56228
153 51 2 3.19461 4.26111 -3.14987 -4.12246 -19.4272 -12.0712
347 116 2 6.71898 7.09441 3.25324 -3.38244 -19.6099 4.44381
111 37 2 2.58926 1.55007 -2.20043 -8.61053 6.34054 -2.44533
590 197 2 3.3785 6.36888 0.955724 0.298246 8.20219 5.5072
589 197 1 3.41271 6.7222 1.93696 -3.19514 -10.0911 5.46173
110 37 2 3.28052 0.61284 -1.07018 -1.42284 2.35286 -4.72327
605 202 2 2.62301 0.106144 0.804581 -2.16404 9.94945 -3.67109
591 197 2 4.32086 6.51882 2.34961 5.21193 -0.654904 -1.22609
368 123 2 0.0783474 1.97329 1.46705 -27.1192 6.1961 6.28502
248 83 2 7.06899 4.24123 0.866053 -2.60554 2.72614 0.0693382
247 83 1 7.08379 4.35889 1.8874 18.0458 -8.03857 -1.5152
24 8 2 4.9035 1.91848 -2.18991 -1.12106 -4.75273 -10.4856
22 8 1 5.88364 1.9955 -2.5264 1.02978 4.70969 1.75608
23 8 2 6.40799 1.41028 -1.89926 10.0381 -3.34365 7.52437
151 51 1 3.77117 4.3804 -2.32514 10.7263 21.4946 26.8104
152 51 2 4.63003 3.82416 -2.26466 -6.52287 -2.89675 -10.3675
485 162 2 6.64154 0.278812 0.124772 -8.75974 4.76991 5.54471
348 116 2 6.4288 5.44443 2.97134 3.69459 4.00779 -5.03914
420 140 2 0.787664 5.03214 -0.88584 -1.56331 -0.804221 -8.95145
419 140 2 2.26738 4.16254 -0.683613 -17.3816 9.86408 0.806826
418 140 1 1.49211 4.69759 -0.253005 13.4632 -18.3367 9.69069
330 110 2 1.71732 1.0873 2.80317 -1.92022 2.25787 7.29397
328 110 1 2.21371 1.38205 1.96386 6.4656 -0.107962 -6.85242
329 110 2 2.79194 2.21264 2.15388 -5.33829 -4.12138 5.90826
409 137 1 0.808099 5.97698 2.86591 -0.173245 -2.83961 25.714
315 105 2 3.59315 5.72525 -1.31774 -1.49616 -2.67114 0.886936
313 105 1 3.43578 6.56036 -0.727063 12.0098 13.1242 -8.07764
314 105 2 2.60834 7.05279 -1.05755 -3.25814 -5.38206 -2.85145
552 184 2 4.86905 1.53405 1.29787 -5.54293 0.49478 -20.2284
550 184 1 5.20123 1.4272 0.323612 20.2834 -2.19163 9.79023
551 184 2 4.55124 1.59124 -0.467065 -7.80303 0.977298 16.9899
536 179 2 6.33103 1.48463 2.96913 0.73703 3.44394 5.31895
410 137 2 1.75058 6.22464 2.55309 4.59566 2.13442 -13.7589
460 154 1 -6.83187 -3.47056 4.12605 3.06139 3.65801 -12.1031
461 154 2 -6.2363 -3.75613 3.30593 -2.60129 -2.8206 22.3696
276 92 2 -6.02287 -0.634415 4.187 7.87158 5.46176 -1.62744
275 92 2 -5.67779 -2.0414 4.9503 -2.16138 -5.10132 -4.53878
607 203 1 -3.03256 -5.85755 3.35245 14.439 -12.0237 10.2715
608 203 2 -2.79888 -6.55116 4.11767 -11.3252 15.5607 -3.89838
444 148 2 -3.72153 -1.36367 5.09485 8.80121 -12.7881 -9.2696
442 148 1 -2.85112 -1.95102 5.0387 -22.9952 -3.58713 29.6488
443 148 2 -2.88411 -2.55127 5.88956 3.21999 9.79978 -14.5243
126 42 2 -4.19262 -2.46168 7.96937 4.76569 -0.675792 0.740071
125 42 2 -4.62113 -3.96948 7.54392 19.5356 -0.138308 3.7219
124 42 1 -3.7898 -3.31394 7.57203 -19.1098 5.95091 -0.178123
458 153 2 -6.41847 -5.36909 7.35106 -8.74868 1.56524 -8.99779
459 153 2 -6.15252 -4.60775 8.78404 2.6209 -3.02559 -7.38999
167 56 2 -2.48577 -6.97523 6.20509 -3.48655 3.53648 -3.65656
213 71 2 -1.60669 -4.10974 5.54177 -2.73034 -1.4164 16.4538
320 107 2 -2.50933 -2.53658 3.48906 -1.35046 -0.362092 -0.870642
264 88 2 -5.77737 -0.336364 6.39859 2.91759 -7.48889 -18.7871
212 71 2 -2.3163 -4.07392 7.13508 4.41893 1.7055 -15.3507
211 71 1 -1.44636 -4.07727 6.55984 5.29458 -2.96274 -1.60095
158 53 2 -0.409918 -7.27574 5.07127 3.22833 20.6636 4.73771
132 44 2 -3.38732 -6.28479 8.25386 -3.94315 1.94658 -0.345518
130 44 1 -3.19269 -7.06078 7.63144 2.90618 5.6768 6.72339
274 92 1 -5.45237 -1.04401 4.93078 -3.12206 -6.41026 5.02991
338 113 2 -5.45016 -6.56666 3.42003 -0.0234891 14.829 0.413594
457 153 1 -5.67145 -5.05142 7.97404 4.79503 3.40616 23.471
166 56 1 -2.09764 -7.27678 5.28368 7.63089 -18.0024 16.5044
288 96 2 -2.38781 -0.539627 4.5737 -1.84554 1.53202 -19.3266
352 118 1 -1.08365 -1.53198 8.53747 -0.296907 12.5314 19.6977
353 118 2 -1.46009 -2.32065 8.04968 -6.80295 -14.4043 -9.85111
355 119 1 -7.25168 -3.61644 9.75512 15.1186 -4.59466 20.1684
354 118 2 -1.64571 -1.27936 9.37593 8.95465 -1.25521 -8.7384
57 19 2 -1.22174 -6.9779 9.6336 5.48753 -2.92474 -4.39525
462 154 2 7.18497 -2.79566 3.7346 -6.91499 1.08966 -2.70083
278 93 2 2.38861 -4.8722 3.37567 -10.5055 7.64706 5.34471
360 120 2 0.530414 -4.82143 7.14626 -2.92361 -3.73285 2.69993
157 53 1 0.587649 -6.98863 5.12198 13.2663 -22.5034 -2.84573
468 156 2 0.60341 -1.20572 8.82947 -4.93304 5.41009 -2.09847
238 80 1 4.74491 -7.00265 5.37504 1.20744 -12.3488 -13.4878
159 53 2 0.784877 -5.9874 5.2126 -8.59757 5.46066 -3.73095
398 133 2 0.494635 -1.05687 3.39469 -5.15512 3.9496 1.57024
397 133 1 0.296651 -2.05551 3.40177 44.9259 -2.45731 14.4333
440 147 2 0.867455 -3.51287 4.57174 9.06555 -1.97744 -2.73191
427 143 1 6.93073 -5.03605 6.36638 -13.8552 2.47086 -31.3471
428 143 2 7.10827 -4.41558 5.55707 12.2724 1.25041 6.06037
429 143 2 6.41261 -5.78307 5.89327 -1.76395 -7.37403 11.9127
439 147 1 1.50116 -4.30478 4.78399 -7.5112 6.65309 -2.16744
441 147 2 2.26295 -4.00635 5.40893 -3.58958 -2.95508 -0.355253
30 10 2 4.44065 -4.33539 6.76754 -1.46314 14.707 16.1321
28 10 1 3.5745 -4.83342 6.56538 6.41655 19.0804 4.94323
177 59 2 3.4825 -0.0713781 4.88414 -6.33301 2.41026 -14.6547
467 156 2 1.47503 -0.126553 7.93499 0.302588 7.78558 0.754886
466 156 1 1.4654 -0.640581 8.82149 12.2929 -21.959 22.882
29 10 2 3.94222 -5.43859 5.84959 -0.281854 -26.874 -12.6641
47 16 2 1.35088 -5.34708 9.49166 1.64661 0.487992 -4.39415
70 24 1 5.56719 -2.92688 7.58332 -11.056 -8.24363 8.69685
579 193 2 0.447127 -7.08869 8.22662 -4.36817 -6.79415 -3.91314
175 59 1 3.5307 -0.178108 5.88157 3.83083 -7.81563 10.8612
452 151 2 4.90718 -0.0927295 6.58422 -0.604449 2.23531 1.29792
71 24 2 5.60972 -1.98702 7.22247 2.43054 12.8402 -3.36023
359 120 2 2.14866 -5.08445 7.39365 1.06067 -5.97752 -4.21942
358 120 1 1.19968 -5.40612 7.66127 -6.76168 5.21557 9.23839
357 119 2 6.49934 -3.30549 9.49917 -6.2068 6.81629 -2.56705
416 139 2 4.25703 -5.48709 9.12446 0.685347 6.22253 -6.45382
415 139 1 4.32113 -6.36469 9.61647 11.0421 -10.3693 9.57856
72 24 2 6.38034 -3.48048 7.32368 6.85385 -6.65898 -3.7031
262 88 1 -6.24781 0.201206 7.11916 25.2207 23.1012 26.0243
263 88 2 -7.24486 0.0286057 7.11866 -21.2559 -3.97298 -3.18585
168 56 2 -1.97751 6.40665 5.51573 -5.23649 3.08092 -11.5266
131 44 2 -3.89178 6.86686 7.82097 6.70167 2.93645 -4.04837
252 84 2 -4.96017 4.92625 8.54546 2.86192 13.5114 -6.65504
250 84 1 -4.96629 5.7641 7.92859 -4.12113 -16.5863 5.08766
511 171 1 -1.80436 5.00674 3.34525 6.10115 12.7436 -24.8682
576 192 2 -4.323 5.28664 6.4467 0.391134 7.32282 0.637633
286 96 1 -2.21387 0.40192 4.15541 15.8715 17.0837 7.90683
370 124 1 -1.56955 2.41387 6.01768 -0.452906 0.575564 5.74646
372 124 2 -1.82879 2.17839 6.96832 -4.41046 -8.74757 2.43176
371 124 2 -1.81765 1.66668 5.35484 -4.73835 0.232021 -2.05259
575 192 2 -3.31873 4.06296 6.3252 6.38389 -7.1095 -8.52178
574 192 1 -3.66593 4.84868 5.78781 -2.58412 -4.01836 8.52832
220 74 1 -0.234589 1.97576 8.89545 -19.373 7.12553 16.5866
221 74 2 -1.27241 1.8735 8.87288 15.0051 -1.46451 2.10372
291 97 2 -7.24164 7.15156 9.66354 -8.73772 -6.3267 -15.2806
317 106 2 -4.02978 1.30798 8.79213 12.0516 11.8438 2.28185
316 106 1 -3.16676 1.87202 8.88769 6.35871 -15.0644 -2.98982
344 115 2 -5.70697 1.94435 7.42643 0.383223 -2.17499 2.16646
343 115 1 -5.55309 2.90596 7.76263 -2.55651 -7.36172 3.18547
318 106 2 -3.41358 2.83486 9.09314 -7.15936 5.30587 2.56622
251 84 2 -5.74674 6.37039 8.18893 -11.25 0.559197 5.58068
512 171 2 -1.61801 4.90726 4.34012 -0.953718 -3.90108 5.13959
596 199 2 -0.858724 4.14042 6.7278 0.721564 -4.816 -20.2977
597 199 2 -0.625049 5.67286 6.93197 7.02349 11.1471 -1.2705
595 199 1 -0.621124 4.97899 6.17824 -1.5958 2.54242 19.156
233 78 2 -7.24385 5.53524 6.78193 -3.80956 -1.35204 -14.1653
345 115 2 -6.22194 3.50326 7.30269 -5.11463 6.93472 -7.78805
373 125 1 -5.21077 4.96351 3.47529 3.66415 -1.22267 4.92487
375 125 2 -4.23436 4.66719 3.53179 3.07739 3.48716 -10.1073
374 125 2 -5.44865 4.81925 4.45266 -10.3671 2.10645 2.28976
297 99 2 -0.518596 0.397251 4.26626 15.4529 13.7474 2.31625
216 72 2 4.2983 4.28885 3.43649 -2.47336 -8.82156 -1.17523
346 116 1 6.05843 6.29607 3.44621 -5.74853 8.98668 0.52679