ITEM: TIMESTEP
41500
ITEM: NUMBER OF ATOMS
648
ITEM: BOX BOUNDS pp pp pp
-7.3140157628148756e+00 7.3140157628148756e+00
-7.3140157628148756e+00 7.3140157628148756e+00
-1.6253368361811056e+01 1.6253368361811056e+01
ITEM: ATOMS id mol type x y z fx fy fz
368 123 2 -1.12908 -3.91885 -13.0085 -1.43238 -4.0857 9.8878
367 123 1 -1.56072 -3.14571 -12.4814 25.6401 -19.3186 0.45708
430 144 1 -4.13158 -6.95567 -16.1241 -2.51972 -8.37198 10.9057
369 123 2 -1.97155 -2.60059 -13.2638 -11.2782 14.7036 12.1111
347 116 2 -3.26888 -5.99047 -10.3227 4.77787 13.3571 8.22914
561 187 2 -3.63381 -2.26702 -14.2917 13.1226 6.65867 8.69085
1 1 1 -6.33528 -2.82245 -16.1816 15.5442 -3.92151 16.1914
3 1 2 -5.76928 -3.06953 -15.3263 -10.4797 4.52103 -27.8194
332 111 2 -7.13693 -4.3384 -12.4852 2.63205 2.76361 0.344702
331 111 1 -6.10389 -4.37601 -12.4574 -0.566366 -12.4225 15.6689
333 111 2 -5.76891 -5.15602 -11.8695 -8.56227 12.3793 -6.31316
559 187 1 -2.89477 -1.60701 -13.9565 -23.0458 9.27951 -24.9104
175 59 1 -0.475384 -5.16888 -14.0189 7.5495 24.3874 23.2449
28 10 1 -5.83686 -1.2577 -10.4342 36.4034 4.44513 -4.2532
30 10 2 -5.5404 -2.21603 -10.6534 -5.36252 5.80723 2.8003
177 59 2 -0.966302 -5.66215 -14.7372 -10.1131 -15.8653 -21.3413
385 129 1 -4.4809 -3.80491 -14.3511 -2.82862 23.1471 -16.2233
386 129 2 -5.24489 -3.90789 -13.6356 16.1458 -17.937 0.447619
387 129 2 -4.03908 -4.64789 -14.7202 -8.36177 -4.77262 8.6211
376 126 1 -2.10419 -0.0973226 -16.0266 -38.615 52.4486 -24.6256
560 187 2 -2.72018 -0.90152 -14.7073 5.08123 -10.3315 6.35292
200 67 2 -0.136887 -3.72269 -14.908 2.70712 0.61053 -20.4172
318 106 2 -2.7069 -1.44999 -11.4998 5.68241 -13.4249 -8.91714
393 131 2 -7.19586 -0.000520753 -12.9894 2.10128 1.30629 2.35743
316 106 1 -2.59394 -0.698595 -10.8319 -11.7912 31.5896 -13.5036
392 131 2 -6.30707 -1.3482 -12.9218 5.89196 -14.3547 5.39102
391 131 1 -6.27439 -0.39878 -13.2382 -15.3059 14.0813 -7.2417
521 174 2 -7.05658 -7.30632 -15.3053 -5.78137 -11.2047 -11.238
644 215 2 -0.227473 -2.71889 -11.0014 10.3405 -3.44546 18.3702
29 10 2 -5.00267 -0.651615 -10.6087 -22.6115 -12.8835 5.82797
176 59 2 0.0881626 -5.77139 -13.429 0.510045 -7.53064 1.78753
620 207 2 1.65411 -5.56113 -12.0575 2.11795 -6.8947 1.08115
619 207 1 1.17132 -6.2824 -11.4955 4.79732 -14.7269 0.199644
173 58 2 6.10709 -3.18528 -13.8419 -7.76664 -1.91576 -9.32466
421 141 1 5.20534 -2.97449 -15.6791 -4.64151 26.0637 -0.670173
284 95 2 2.65406 -4.7376 -14.2723 7.15499 -8.80125 -8.56616
285 95 2 3.46221 -5.89699 -13.2613 2.05907 0.834457 -16.0947
283 95 1 2.76119 -5.14491 -13.3438 -1.74682 10.1842 21.9071
557 186 2 5.51065 -3.80816 -11.4004 0.885637 -4.11194 13.6299
264 88 2 3.90185 -1.42705 -14.22 14.7949 -0.325241 -15.29
556 186 1 5.43033 -4.03391 -10.3805 0.0788386 9.74587 -7.91919
558 186 2 4.48861 -4.38239 -10.2058 2.76756 -0.379066 -0.249537
262 88 1 3.23226 -0.887265 -13.7119 -9.86124 4.02245 -4.0495
263 88 2 2.94534 -1.55923 -13.0108 -4.45377 -6.47412 21.2332
174 58 2 5.5222 -4.66943 -13.3131 -3.48968 -3.42809 -8.64824
172 58 1 5.95165 -3.79166 -13.0339 4.05235 -0.877175 13.4421
115 39 1 2.97322 -2.83475 -11.7586 7.67448 -20.1814 -33.2685
117 39 2 2.87999 -3.66183 -12.3877 6.44193 12.5771 7.62823
363 121 2 1.99875 -4.0892 -16.2303 -11.8152 10.0126 -0.767208
199 67 1 0.270502 -3.23269 -15.7362 7.47863 -10.9141 13.2793
359 120 2 7.12214 -0.892523 -10.4145 4.29025 -5.50533 0.564791
509 170 2 5.49146 -0.329927 -11.889 -3.53856 1.53804 4.90764
621 207 2 1.86412 -6.80266 -10.9215 -2.04244 9.46241 -0.203424
349 117 1 4.95834 -7.22427 -13.507 -29.6847 -14.4081 27.0661
358 120 1 6.13535 -1.19533 -10.3931 -11.4919 12.5509 5.24987
360 120 2 6.12271 -2.19383 -10.2332 -2.29486 -14.9428 -0.273926
643 215 1 0.467505 -2.77088 -10.2148 -5.57523 10.7417 -29.3177
645 215 2 0.434934 -3.6791 -9.78687 -8.19781 -16.1967 8.1216
116 39 2 2.28152 -2.9488 -11.0506 -19.7424 5.41453 20.9157
523 175 1 1.55906 -0.302182 -10.1957 4.46475 -33.8247 5.05662
524 175 2 1.28553 -1.3182 -10.0357 -0.844466 33.8953 -4.62416
423 141 2 4.40628 -3.47908 -16.0667 -5.21465 -15.0777 -1.65872
422 141 2 5.03602 -2.00961 -16.0116 12.7394 -6.03927 0.252596
169 57 1 2.19819 -7.28178 -15.6178 -17.0952 3.39595 -8.25893
431 144 2 -4.7004 6.9306 -15.682 7.01623 12.7769 -12.4607
317 106 2 -2.81638 0.182929 -11.3324 6.42931 -17.5523 9.54892
352 118 1 -4.71023 5.31406 -13.7242 4.59736 6.66032 -9.72428
354 118 2 -5.43978 5.90996 -14.123 -11.3915 -2.48606 -8.40215
353 118 2 -5.14461 4.94614 -12.8897 -2.22585 -13.0372 21.507
584 195 2 -2.4794 2.07128 -14.1493 15.3711 -11.7445 -3.62776
265 89 1 -2.67213 6.9466 -13.5088 -0.196954 2.74111 -22.0509
267 89 2 -3.477 6.30708 -13.4223 -1.39808 -6.12398 6.77244
266 89 2 -2.66692 7.04613 -14.5357 6.46169 6.43918 13.1475
147 49 2 -4.01906 5.18619 -10.7929 13.1767 6.43134 -16.1217
43 15 1 -5.57164 4.50709 -11.1817 -36.4218 -21.4519 28.0317
145 49 1 -3.04202 5.15082 -10.4421 13.617 -3.58177 16.4741
146 49 2 -2.20537 5.68429 -10.8209 -35.4892 0.538581 -1.15558
611 204 2 -0.321958 6.4814 -9.9689 -17.1894 2.62658 -7.40863
44 15 2 -5.49623 3.79478 -10.4048 17.9063 13.1423 -14.7079
357 119 2 -5.93208 0.455572 -14.5473 3.97219 12.0741 -20.9977
617 206 2 -0.409675 2.92027 -15.2099 -4.39246 -63.7722 11.0321
616 206 1 -0.701134 1.86609 -15.0934 6.01992 63.7048 -8.26774
520 174 1 -6.97643 6.36472 -14.9228 27.2951 31.831 27.1707
123 41 2 -1.81213 6.98536 -12.0541 -1.87069 9.7164 -29.3434
122 41 2 -0.263865 7.24706 -11.296 7.78283 20.7294 -17.6778
121 41 1 -1.21131 6.88677 -11.2411 -5.55561 -13.5368 26.669
45 15 2 -6.59772 4.58775 -11.1033 15.5098 10.4543 -13.6126
60 20 2 -0.686506 3.02275 -9.81775 1.09691 6.85919 -12.603
59 20 2 -2.13998 4.04342 -9.8031 8.3515 0.87329 -8.60526
378 126 2 -1.60481 0.817428 -15.8056 -5.14937 -29.9783 3.82702
573 191 2 -7.30843 1.47934 -15.7208 -4.62204 0.10175 -4.72214
585 195 2 -3.57857 3.20835 -13.9822 -7.79284 10.9464 4.29345
583 195 1 -3.46157 2.20656 -13.9698 -8.39341 6.85095 -1.86789
355 119 1 -5.81848 1.19446 -15.309 7.72416 -4.78354 38.5577
356 119 2 -5.34 1.94865 -14.783 1.55635 -9.61458 -4.51092
455 152 2 0.500642 1.42278 -10.0578 5.25729 7.05535 -3.33307
456 152 2 0.610367 1.80363 -11.6563 3.73667 13.1827 28.1234
454 152 1 0.63081 2.2379 -10.6877 -7.83907 -17.5353 -21.8528
82 28 1 1.17702 0.611705 -12.714 8.19319 -11.9647 -20.8245
84 28 2 1.82895 0.0644269 -13.3238 -5.01158 11.7857 6.49581
83 28 2 1.12922 0.0367314 -11.8585 1.03582 4.51935 7.2185
508 170 1 5.75016 0.429709 -12.527 13.3196 10.9055 -20.7115
481 161 1 0.372972 4.33719 -15.2388 13.4489 11.4924 30.6725
351 117 2 5.78299 7.03575 -13.947 14.3043 -5.23662 -9.64535
516 172 2 1.51612 5.04125 -12.6991 2.88633 14.6805 -8.32942
514 172 1 1.47078 5.91106 -13.2613 -4.90818 -20.2459 2.30154
515 172 2 1.46005 6.69591 -12.6204 -0.48704 8.82481 5.4498
38 13 2 3.99264 3.11342 -12.5803 -3.72488 -7.72142 -7.46718
37 13 1 3.64105 2.2567 -13.0487 -10.9475 7.46123 14.1762
39 13 2 2.74613 1.96413 -12.6031 17.3172 0.308398 -11.5808
618 206 2 0.000375162 1.2724 -14.6423 3.66316 8.39375 4.08808
510 170 2 4.94567 0.931753 -12.9368 -4.85554 -6.0527 9.8949
522 174 2 7.17459 5.67718 -15.4951 -15.9448 -16.4598 -11.0565
630 210 2 3.58361 2.47619 -14.8135 3.86705 -3.64036 27.8676
629 210 2 2.55197 3.47766 -15.6807 -8.76195 7.50766 9.81206
350 117 2 4.4847 6.59823 -13.0307 13.8408 20.0069 -14.1044
221 74 2 3.79323 5.70574 -11.1843 4.55729 0.0234011 -5.84495
220 74 1 4.02387 4.86886 -11.7469 -17.5079 -4.87422 23.4586
222 74 2 3.6863 4.11383 -11.0885 14.1482 9.35685 -11.9536
572 191 2 6.35641 1.54992 -14.5265 -13.2324 -2.61559 24.8637
7 3 1 3.21235 6.97776 -9.99505 28.9629 8.05603 -11.8827
553 185 1 3.32294 3.00849 -10.0144 -12.4635 -25.5233 -26.9454
554 185 2 2.46807 2.4996 -10.3299 15.8213 5.37984 0.412507
170 57 2 1.399 7.07799 -16.1803 5.29424 4.15189 -15.0002
483 161 2 0.115656 4.8846 -16.0639 -6.00668 7.41299 -9.21401
571 191 1 6.31483 1.66289 -15.5164 2.93667 10.9884 -12.8146
482 161 2 0.691337 4.99066 -14.4653 -9.04948 -18.8754 -25.2045
628 210 1 3.35491 2.86294 -15.7161 -6.52084 -3.76732 -32.8101
171 57 2 1.95632 6.86642 -14.7643 12.027 -6.00061 20.5173
595 199 1 6.04686 4.45391 -15.8565 8.07615 19.6822 -1.71747
596 199 2 6.01595 3.46054 -15.6181 -11.2635 -6.23452 -6.18864
348 116 2 -4.39948 -5.23185 -9.4043 10.0134 3.41481 3.9866
346 116 1 -3.3893 -5.20356 -9.66628 -15.1832 -17.4335 -9.88256
476 159 2 -1.36556 -0.101245 -9.71052 4.35684 -6.53086 6.89014
638 213 2 -2.88224 -3.44887 -8.94777 7.559 4.53832 -0.338319
637 213 1 -2.42471 -2.72793 -8.37104 -10.4696 -2.58352 9.24652
639 213 2 -1.72448 -2.1735 -8.85506 1.42007 3.04898 -7.79545
81 27 2 -1.85187 -5.34517 -8.90901 23.3153 11.2957 17.7656
625 209 1 -5.32349 -7.12055 -6.46507 7.83053 34.8363 -21.1394
80 27 2 -1.26163 -4.45593 -7.61826 -14.2684 10.2038 4.89128
79 27 1 -0.999038 -5.14684 -8.30971 -10.8932 -16.4637 -20.1646
56 19 2 -3.18159 -5.14843 -4.91266 3.23792 -4.94257 -10.1853
300 100 2 -1.77673 -5.75803 -3.53851 2.17662 15.1644 -4.21631
420 140 2 -7.18272 -6.88307 -3.6106 -23.5123 15.025 -6.09414
298 100 1 -0.807839 -5.44176 -3.71734 -8.68948 -15.6344 5.40083
381 127 2 -3.48335 -1.97154 -5.34215 4.72792 -1.87991 6.9754
380 127 2 -2.88225 -1.76409 -6.90031 13.1491 -17.8715 -18.538
379 127 1 -3.34077 -1.32861 -6.11976 -10.0964 17.3945 14.2201
53 18 2 -2.3966 -3.16453 -3.78412 3.73266 1.82276 1.06051
52 18 1 -3.2118 -2.62076 -3.51257 7.93773 3.88859 -12.9248
343 115 1 -5.99266 -5.55564 -8.79613 -9.76732 6.13117 4.08289
345 115 2 -6.74684 -4.96587 -8.40632 9.32461 0.356797 -4.92128
344 115 2 -5.78407 -6.26005 -8.08176 3.36811 -0.757028 5.17073
268 90 1 -5.67907 -1.11716 -7.24482 -16.2602 14.3791 9.26893
269 90 2 -5.63227 -1.44321 -8.19159 8.15828 -6.60899 -15.1031
270 90 2 -4.74499 -1.07981 -6.77605 -1.32898 -3.08249 -4.21967
288 96 2 -7.24739 -1.31353 -5.76169 6.3314 11.9364 1.47765
55 19 1 -2.92223 -5.01961 -5.91628 2.91056 6.52407 -0.16886
57 19 2 -3.62211 -5.54177 -6.42767 -3.99242 -2.46659 -3.82317
366 122 2 -1.18558 -6.65932 -7.35342 2.77062 8.23068 -8.25126
299 100 2 -0.390142 -6.37594 -3.77719 6.63268 4.24072 -0.0435246
257 86 2 -4.18497 -6.81444 -3.74042 21.4193 37.6644 4.83899
256 86 1 -3.74053 -5.85105 -3.62005 -35.2403 -29.1474 15.5196
622 208 1 3.98425 -0.625039 -8.74504 -3.39228 -2.28431 -22.3898
624 208 2 4.45796 -0.414789 -7.89395 6.40806 4.93077 24.327
131 44 2 5.47796 -7.21529 -7.7283 -11.3495 2.34142 -8.14569
132 44 2 6.03221 -6.00272 -8.5132 -5.76605 7.60758 -13.1764
418 140 1 6.83724 -6.15436 -4.07443 32.0966 7.26394 24.3201
419 140 2 7.06087 -5.24383 -3.61737 -6.73933 -11.9903 -10.3722
525 175 2 2.45929 -0.143378 -9.71824 -3.68792 -4.83277 1.61217
130 44 1 5.31605 -6.71794 -8.62483 18.3734 -11.2653 25.6584
474 158 2 0.44744 -4.82129 -6.87532 3.60714 -6.12941 5.25542
438 146 2 1.79585 -2.58231 -7.03995 5.56976 6.92145 -4.41278
341 114 2 0.107237 -0.132977 -3.31421 -1.14959 3.93824 4.44053
538 180 1 2.531 -2.62751 -4.08666 -12.6925 -11.4742 2.94375
539 180 2 2.21404 -2.44039 -5.04146 -0.813038 11.5072 -3.72562
198 66 2 5.91179 -3.722 -8.62229 -4.45613 -2.20524 1.91836
196 66 1 6.3454 -3.83658 -7.69853 21.1664 -4.49538 -6.61567
197 66 2 5.66942 -3.92824 -6.94135 -18.9568 -0.955516 3.85257
436 146 1 2.44699 -1.81683 -6.85091 -11.7732 -14.1551 10.9789
437 146 2 2.93718 -1.5025 -7.69709 -1.19136 3.53603 -0.681219
287 96 2 7.10116 -2.89123 -5.99514 -1.46866 9.2195 10.1157
286 96 1 7.02045 -2.13696 -5.28963 -10.8313 -27.2607 -9.99802
119 40 2 6.02453 -6.85001 -5.38914 25.0441 40.6574 32.0967
540 180 2 3.42711 -2.16954 -3.90784 10.7807 7.8791 1.78616
504 168 2 5.61658 -1.74357 -4.31363 -7.48826 24.4605 -2.9436
473 158 2 0.0371881 -4.7343 -5.2409 22.3941 -6.76773 -15.616
472 158 1 0.840561 -4.81677 -5.92572 -28.3399 10.3306 11.3341
384 128 2 1.92588 -5.62888 -5.01556 6.16242 -15.3903 -12.4181
623 208 2 4.73427 -0.793284 -9.42897 0.83086 -2.79196 -7.2032
383 128 2 2.28977 -5.87692 -3.55245 11.9092 -17.8257 -0.843571
382 128 1 2.557 -6.25775 -4.46906 -18.7828 29.4726 10.349
195 65 2 7.29061 -2.70169 -3.5992 11.6889 -13.141 -9.94233
502 168 1 4.88728 -1.34737 -3.67142 -5.10331 -11.6039 10.7738
503 168 2 4.49871 -0.398667 -3.82802 18.596 -6.31133 -13.1963
588 196 2 3.46214 -3.48637 -5.34963 27.2289 -4.38573 -25.5337
587 196 2 3.72651 -4.92632 -5.48561 0.277766 -45.6378 4.7245
586 196 1 4.07378 -4.11606 -5.9273 -16.0235 41.172 19.5816
178 60 1 -5.49788 2.87802 -8.98774 -20.6336 -20.966 8.29972
180 60 2 -6.47166 2.7645 -8.62877 15.5932 3.7929 -9.98448
179 60 2 -5.03035 1.96563 -8.81967 1.86409 15.5868 -0.110203
627 209 2 -4.80843 6.76071 -6.9144 4.26102 -23.0038 1.58829
626 209 2 -6.06429 7.27209 -5.83495 -9.80554 -12.9565 10.7366
306 102 2 -0.0585185 0.93226 -6.91851 11.2241 6.14072 5.3208
475 159 1 -1.09688 0.0570634 -8.72656 0.283726 2.16026 -9.83861
477 159 2 -2.00317 0.281687 -8.31874 -4.71114 5.28723 13.026
342 114 2 -0.0949555 1.05286 -4.37625 -1.39552 12.0345 -17.8483
365 122 2 -1.24417 6.93237 -6.10533 2.24953 -2.1403 6.89448
68 23 2 -3.73318 5.29424 -8.8588 2.31095 2.37743 17.8216
67 23 1 -4.04395 5.15015 -7.87337 -0.945292 -3.35193 -18.1554
69 23 2 -4.28145 4.15366 -7.85367 -3.28692 7.00004 3.46863
490 164 1 -6.99652 0.304102 -3.85993 -2.79149 20.3881 4.77915
307 103 1 -3.35007 1.42339 -7.77965 9.3995 36.9702 7.04956
308 103 2 -3.45182 1.59647 -6.75265 5.69395 -9.34313 -27.2978
309 103 2 -2.84677 2.22782 -8.24648 -9.82201 -26.7707 15.0285
535 179 1 -4.38241 5.85001 -4.01793 -21.3087 8.65749 -30.529
537 179 2 -5.22354 5.36704 -4.37555 15.4322 10.8818 5.61521
31 11 1 -1.65432 6.52417 -4.39221 -16.3742 -17.356 4.13778
32 11 2 -1.40412 5.57291 -4.1668 23.9075 -5.73473 -2.78944
280 94 1 -1.11553 4.28068 -6.48829 -6.66054 -12.2318 -13.3321
282 94 2 -1.63192 5.16225 -6.50926 3.20338 -0.387201 -4.67346
281 94 2 -1.10252 3.89388 -7.44957 -2.14493 5.14156 11.0975
470 157 2 -6.89739 0.0695677 -7.06168 -22.6366 14.4612 39.1844
492 164 2 -7.1747 0.593602 -4.85036 2.04491 -12.0527 10.7245
364 122 1 -0.978463 7.00436 -7.09409 -7.87878 6.20888 15.5682
58 20 1 -1.53528 3.34081 -9.33783 -8.53905 -16.6697 32.2153
612 204 2 -0.21374 6.45907 -8.30107 -2.51373 -5.97022 -4.06351
33 11 2 -2.64688 6.35371 -4.18822 -8.22607 20.3894 -7.33797
304 102 1 0.507932 1.50456 -6.26992 -38.1415 -11.6934 -4.42359
305 102 2 1.51878 1.327 -6.38516 8.51673 1.00436 -5.18519
340 114 1 0.231739 0.869608 -3.43807 10.436 -13.0475 9.69949
532 178 1 2.58184 6.86814 -7.33895 2.47216 0.283794 22.1484
9 3 2 2.5445 6.83848 -9.23527 -3.67302 -1.12536 14.8771
8 3 2 4.11751 7.31306 -9.53373 -28.1241 -5.16056 -10.7332
491 164 2 7.16807 0.992458 -3.25959 2.85436 -4.66285 -3.70632
534 178 2 1.9528 7.16309 -6.57846 1.69957 -1.48526 -11.726
533 178 2 3.48598 6.67756 -6.89481 -6.2413 5.92522 -3.77869
276 92 2 3.58155 1.57717 -7.56007 -7.37946 -0.532455 18.6367
602 201 2 1.19002 3.19335 -7.83267 -16.6737 -7.48737 8.40875
601 201 1 1.60001 3.9735 -8.3208 7.37789 24.4068 -10.8668
603 201 2 0.935381 4.70314 -8.70503 6.13472 -14.4337 12.5945
469 157 1 7.02755 0.600962 -6.44367 38.6592 -31.4342 -29.8136
544 182 1 4.21583 4.58227 -7.23313 31.3006 -19.35 13.9955
546 182 2 3.4918 5.07556 -7.74271 -6.08385 10.0927 -8.47827
274 92 1 3.01547 1.40861 -6.71316 26.6343 0.757145 -7.67551
555 185 2 2.8853 3.45655 -9.21738 -6.89497 15.6253 22.8816
610 204 1 0.116951 6.01018 -9.18959 25.5018 -10.8713 15.1284
370 124 1 6.22184 2.38307 -8.7969 6.18204 17.0513 28.4227
371 124 2 5.88488 2.02931 -9.6777 -10.3497 -1.93544 -11.7815
120 40 2 5.02915 6.53963 -5.20337 11.0948 0.263321 -8.34257
118 40 1 5.6638 7.00761 -5.88373 -39.8214 -50.7758 -37.0081
372 124 2 5.63 3.14634 -8.41693 3.11837 -15.659 -12.0346
471 157 2 6.61618 1.25348 -7.07141 -14.7515 20.918 -13.2864
413 138 2 0.358047 4.07118 -5.7169 -9.80305 -0.601029 -5.2304
412 138 1 1.29961 4.22834 -5.33891 20.9602 9.2725 9.21304
414 138 2 1.95119 4.30412 -6.12635 -7.7963 -3.19757 2.40642
545 182 2 5.17979 4.95053 -7.20704 -19.9612 7.01169 -3.0145
230 77 2 2.95851 1.49327 -3.69557 28.855 10.5442 -12.4256
231 77 2 4.50086 2.28773 -3.72333 2.37559 -0.681799 10.7457
548 183 2 1.07805 3.9285 -3.41486 5.34858 4.10049 -2.36279
275 92 2 3.53546 1.4865 -5.8036 -7.18562 0.546689 -13.8989
531 177 2 3.95563 4.58327 -4.90025 -8.96322 -3.75334 -4.21722
229 77 1 3.88321 1.6076 -4.17893 -29.3069 -15.6766 4.50928
529 177 1 4.11476 5.37485 -4.28264 9.0186 18.2633 8.90379
530 177 2 3.28147 5.94814 -4.10538 -3.15929 -7.94915 -5.11779
209 70 2 -3.83885 -0.906959 -2.85351 1.37155 13.2464 -7.89464
54 18 2 -3.91466 -3.29182 -3.20144 -5.86525 1.02092 14.1585
258 86 2 -4.3076 -5.35029 -2.89542 16.5313 -11.0795 -7.80567
321 107 2 -5.75088 -3.80661 -2.20088 -22.3157 7.75555 -10.7257
319 107 1 -4.83934 -3.89953 -1.77875 18.2025 1.51894 -24.9805
159 53 2 -5.26747 -3.83639 0.907932 4.93216 -30.4978 -4.27068
157 53 1 -5.62781 -4.76157 0.55035 29.8828 38.0988 21.134
565 189 1 -4.48413 -6.65806 -0.924359 -16.3009 -5.15245 10.8093
566 189 2 -4.93492 -6.00286 -0.23603 9.48771 -12.2066 -10.3287
567 189 2 -3.56983 -6.97932 -0.590713 2.67328 9.5248 1.02879
598 200 1 -1.87984 -5.58393 2.25696 -16.0583 -6.52057 4.43247
600 200 2 -2.5758 -6.10272 2.80566 3.67229 5.70498 1.47688
320 107 2 -5.00154 -4.371 -0.898048 -1.33606 -6.7214 18.2684
599 200 2 -1.91598 -6.01915 1.32116 5.99272 3.61121 -7.06625
577 193 1 -1.82156 -6.80368 -0.153502 -1.53105 22.2933 -9.0501
47 16 2 -5.51912 -2.11386 0.932339 1.35433 11.6739 12.0981
46 16 1 -5.19805 -2.32101 1.90979 -2.91608 6.608 -8.82582
48 16 2 -4.80855 -1.44372 2.308 -3.1449 -13.9612 -4.9186
579 193 2 -1.26904 -6.51189 -0.969326 -0.889252 0.21963 5.28441
303 101 2 -2.28642 -3.67894 2.16345 3.02489 -6.78802 1.31199
301 101 1 -2.10825 -2.67651 2.25691 -1.01267 7.66157 -27.1308
302 101 2 -2.10944 -2.42264 3.21966 -1.89834 3.72701 23.2814
648 216 2 -2.45477 -1.70203 0.758608 -2.50461 0.547598 -27.486
158 53 2 -6.59135 -4.59421 0.758269 -36.5843 -11.972 -3.26956
11 4 2 -6.79721 -3.04225 2.4628 -0.151074 5.88982 9.3091
646 216 1 -2.51978 -1.18882 -0.159086 1.67712 16.1559 52.4337
562 188 1 -6.26028 -1.37969 -0.308356 -0.692325 13.7398 -7.94625
647 216 2 -2.33172 -1.73271 -0.969616 2.19648 -21.1968 -17.4992
564 188 2 -5.79897 -0.496935 -0.586557 0.794881 -5.15699 3.8975
125 42 2 -3.11461 -0.0955009 1.69971 4.06482 -11.2654 -11.7512
260 87 2 -0.495164 -2.40418 1.05703 -29.3549 13.2141 0.0989486
563 188 2 -7.00972 -1.57634 -0.969671 0.906182 -2.07076 2.24628
614 205 2 -0.385736 -5.0401 2.87304 -21.5544 -5.19692 -9.76913
575 192 2 1.26653 -2.74086 -2.70891 -9.67438 -5.69903 1.33461
576 192 2 0.370504 -4.10255 -2.56093 -10.4324 0.108296 0.226871
151 51 1 0.925443 -7.0561 -1.69704 8.7373 31.3698 16.7944
194 65 2 6.5068 -3.23404 -2.33659 2.95365 -12.641 7.46018
574 192 1 0.455138 -3.14685 -2.20735 18.1912 4.14711 -0.842854
152 51 2 1.33434 -6.33468 -1.02806 -9.07961 -23.2391 -21.0997
193 65 1 7.31139 -3.48287 -2.9165 -12.5661 16.6718 3.4903
12 4 2 6.47763 -3.90741 2.18659 -5.80702 -5.80568 -12.8565
261 87 2 0.268267 -3.21949 -0.306471 -13.4276 9.54107 7.66328
512 171 2 5.75206 -5.27394 0.278579 8.28674 18.6033 6.02519
88 30 1 2.70345 -0.00250673 -0.0707942 -1.89268 1.63901 -32.2825
90 30 2 2.65559 -0.514108 0.800791 -3.39826 -4.91958 14.6652
635 212 2 3.40497 -5.70876 -0.326403 -29.8299 8.27919 7.23315
636 212 2 2.39481 -4.7463 0.628071 -2.96883 2.29514 0.967723
634 212 1 2.41714 -5.36654 -0.178614 34.1269 -12.0567 -6.02936
398 133 2 4.33053 -1.91355 -0.734521 19.6947 -2.12106 -10.3887
397 133 1 5.24868 -2.21606 -1.11323 -3.02279 9.10424 -18.737
399 133 2 5.39949 -1.83165 -2.09165 -19.2742 -5.25347 28.374
513 171 2 5.76891 -3.55309 0.149616 -4.52799 6.06062 -11.7393
259 87 1 0.174788 -3.05634 0.717129 40.4633 -21.5857 -22.9051
511 171 1 6.21634 -4.36793 0.563973 -5.04071 -26.3622 1.89356
506 169 2 1.46233 -2.85236 1.57065 4.81689 -3.19696 8.23182
505 169 1 2.24221 -3.04213 2.24504 -10.6516 -51.1971 -11.8237
507 169 2 2.78946 -2.21887 2.4643 3.72005 27.5519 1.65955
604 202 1 4.97905 -6.73974 0.0667453 9.94966 -9.5601 -38.6
615 205 2 1.06974 -4.25362 2.91669 -10.4238 -0.759354 10.0741
89 30 2 2.07108 -0.329556 -0.816668 4.86695 2.5572 16.5241
580 194 1 3.04798 -0.682675 2.73901 50.3127 47.8617 12.4476
10 4 1 6.98269 -3.41376 2.91686 12.0791 5.36446 11.3785
208 70 1 -4.1384 0.0882143 -2.86587 -7.482 -24.4975 8.14854
210 70 2 -5.16094 0.0699339 -2.96371 4.30152 6.402 -7.43292
135 45 2 -1.88448 0.880807 -0.842907 -3.02759 0.933858 -4.43883
536 179 2 -4.09826 5.35702 -3.19848 13.2252 -18.7537 31.9944
578 193 2 -1.56366 6.86442 0.0315381 4.8333 -23.9996 1.29517
134 45 2 -3.16259 0.92531 -1.89019 10.5249 8.36229 -4.21047
133 45 1 -2.45909 1.52455 -1.38871 -12.3141 -0.71831 6.35244
4 2 1 -2.04244 4.54547 2.83072 1.25057 8.10634 -22.1785
296 99 2 -2.90345 3.49026 -1.88613 1.67595 12.632 6.28356
297 99 2 -2.70404 5.11311 -1.26618 7.29396 -11.4355 6.58109
295 99 1 -3.23822 4.47328 -1.86372 -13.6243 -8.4011 -19.0133
20 7 2 -4.32301 1.84123 -0.692618 3.80292 -10.6295 -7.10918
21 7 2 -5.58905 2.30001 0.188066 -1.21831 -21.2993 -8.05962
19 7 1 -5.25023 1.52509 -0.405125 -4.45677 24.8517 17.0184
232 78 1 -1.50208 5.17819 0.0705944 -25.5379 36.9628 24.2327
233 78 2 -0.899392 4.48957 -0.289072 21.6376 -31.2108 -7.81381
234 78 2 -1.83658 5.0292 1.0433 9.4984 -9.45416 -7.0452
278 93 2 -6.85953 5.01302 0.763685 -12.9218 9.61255 22.2715
124 42 1 -3.56116 0.200097 2.55055 1.67024 -2.93951 2.21343
126 42 2 -3.6779 1.19928 2.42973 -12.0501 14.2438 6.36464
468 156 2 -4.91303 3.55475 3.21644 5.12632 -6.75874 -3.80065
466 156 1 -4.16135 2.97869 2.8209 -20.5769 -11.9434 1.39142
467 156 2 -3.34562 3.55715 2.62152 12.5097 11.4992 2.40702
137 46 2 -7.24149 0.364984 0.831304 9.63682 -13.9775 -13.2353
182 61 2 -6.131 6.42149 -1.85603 19.2871 2.17923 17.1467
181 61 1 -6.94119 6.44304 -2.43661 3.59239 11.1442 -29.9823
167 56 2 -6.50346 5.67336 3.19208 -10.3415 -5.1342 -13.671
16 6 1 5.63147 2.72227 -2.3558 6.9206 1.14814 -16.9947
18 6 2 5.36041 2.27136 -1.5051 -9.91456 -21.5541 21.922
17 6 2 5.64464 3.67297 -2.03572 3.63258 24.1618 -5.903
606 202 2 5.36979 7.27926 -0.696562 -8.68136 18.245 18.083
605 202 2 4.52806 7.21227 0.690763 -2.22186 -2.50495 11.1374
183 61 2 6.88498 5.96636 -2.04752 -15.3021 -7.51937 10.6646
312 104 2 1.72188 4.33109 1.23631 -46.9376 -1.07658 5.63448
277 93 1 7.28764 5.2802 1.64644 7.89487 -13.0818 -21.4685
549 183 2 1.01761 2.38251 -3.04595 -0.105117 20.2226 24.4651
547 183 1 1.26506 3.31716 -2.61326 -8.28023 -30.4046 -23.0883
136 46 1 6.76102 0.9893 1.29623 -33.1708 24.7467 6.12286
138 46 2 5.8917 1.24111 0.757204 21.7878 -6.44442 11.462
501 167 2 1.96863 4.37421 -1.55796 1.65667 10.6616 -10.1858
500 167 2 2.12307 5.23417 -0.206978 3.24041 0.624069 24.7442
310 104 1 2.67351 4.14528 1.2598 24.9359 -15.8435 -5.64468
311 104 2 3.13441 4.97143 1.63656 20.5722 8.51518 2.71445
591 197 2 6.89417 2.13629 2.80605 -3.93003 -2.98471 -1.72802
86 29 2 5.08555 5.78717 -2.77069 5.58468 -9.17132 24.1728
499 167 1 2.30096 5.293 -1.18175 8.32282 -6.97354 -29.1503
153 51 2 1.57114 6.77568 -1.77236 -3.11864 -3.43966 5.17716
279 93 2 6.94079 4.42087 2.10399 2.14351 -1.24649 4.14988
87 29 2 4.26163 5.36711 -1.42667 21.6691 5.30411 -2.14146
85 29 1 5.2388 5.58706 -1.74394 -36.9517 -1.03568 -20.6397
330 110 2 5.3268 6.02132 1.97972 -33.3895 4.734 3.47765
224 75 2 4.01893 2.88619 0.337671 -19.8646 20.0128 14.8512
223 75 1 4.45953 2.03822 0.0477361 37.9566 -9.49311 -14.177
582 194 2 3.65679 0.139517 3.02614 -21.1586 -35.9174 -16.1513
328 110 1 4.27469 6.14328 1.92878 29.5137 -3.02689 1.89658
225 75 2 3.7727 1.31475 -0.157134 -17.2607 -12.1134 4.99382
329 110 2 3.90477 6.86262 2.58166 2.06845 -0.349157 3.91839
51 17 2 -4.07816 -1.42017 8.28328 -1.33478 -0.237521 -11.0049
49 17 1 -4.42679 -2.05799 7.54311 14.7127 10.1565 3.01289
50 17 2 -5.18689 -2.55051 7.98235 -21.0679 -11.3238 11.0811
405 135 2 -3.66451 -3.91769 5.11738 -6.60169 2.58914 -10.0995
404 135 2 -3.38458 -3.45139 6.65046 9.4831 13.5321 -13.3482
403 135 1 -2.91239 -3.61094 5.73686 -1.76257 -3.98254 17.6619
244 82 1 -6.51548 -3.01301 9.10724 1.66031 10.5704 -16.0862
246 82 2 -6.98811 -2.20797 9.53819 1.48991 -11.9795 1.07208
486 162 2 -6.26381 -4.28603 4.11333 1.26309 0.917152 -7.92701
484 162 1 -5.40194 -4.21774 4.6624 0.224049 -12.6685 -6.05587
485 162 2 -5.71259 -3.6087 5.39813 -0.951676 9.99017 12.7465
97 33 1 -4.36617 -6.84087 3.89993 10.2417 3.12662 1.36354
99 33 2 -4.54593 -5.86897 4.13274 -3.68721 12.0157 1.12923
528 176 2 -4.01661 -6.23674 7.92749 -19.4317 -10.949 0.956592
25 9 1 -2.25162 -5.91041 6.87206 -9.11637 -1.63456 7.27443
26 9 2 -2.45189 -5.04805 6.32734 7.63997 -6.181 2.51555
27 9 2 -1.30588 -6.24623 6.66008 -0.935657 0.626816 -8.3795
495 165 2 -1.25335 -2.75533 5.66975 -16.5203 -17.0236 1.99127
41 14 2 -1.874 -0.0752828 7.07525 -14.1167 9.72573 27.5571
493 165 1 -0.362026 -2.28184 5.65614 33.369 18.3556 2.92545
527 176 2 -5.5536 -6.95972 8.53751 6.3745 5.19818 -17.8379
526 176 1 -4.52574 -6.83344 8.61538 19.1488 3.72624 4.14445
428 143 2 -5.28632 -0.478818 5.20701 -5.00679 0.861473 1.67068
427 143 1 -6.2171 -0.531597 5.63094 11.7149 0.883304 0.970361
429 143 2 -6.1426 -0.956456 6.55539 3.43285 0.390239 -2.04593
161 54 2 4.28858 -3.9069 3.81576 -2.91388 8.11119 4.58112
162 54 2 3.92402 -2.40229 4.47208 -3.7382 21.833 -2.80275
375 125 2 0.391267 -1.08137 4.3541 -24.542 -32.4523 21.2693
373 125 1 0.740433 -0.272066 3.90937 20.6663 35.1048 -19.6205
581 194 2 2.22772 -0.600264 3.35207 -16.4746 3.32689 2.50872
213 71 2 1.24942 -4.80562 5.75297 2.62675 2.81934 4.78037
211 71 1 1.62169 -4.16683 6.46449 -1.51495 -0.488778 -8.87986
449 150 2 0.200811 -5.96619 4.67241 14.9724 -4.84669 -19.027
390 130 2 6.83773 -3.85678 6.9721 -12.7139 -0.94812 -15.4749
613 205 1 0.4024 -4.82541 3.4751 39.4918 10.239 5.06788
402 134 2 6.52546 -5.53356 5.28616 11.6937 3.19904 1.85009
206 69 2 6.66372 -7.00712 8.47014 36.0867 -18.9009 -17.8875
388 130 1 6.53359 -4.12179 6.01709 29.1232 0.412308 20.4427
212 71 2 2.62249 -3.9908 6.2544 -6.32646 0.701879 1.36914
389 130 2 5.74257 -3.58079 5.698 -17.2324 10.5917 1.27863
494 165 2 0.449836 -2.87673 5.93279 -16.7448 0.018807 -3.17036
594 198 2 4.49877 -4.41004 8.52428 10.0135 -10.6743 7.49031
592 198 1 3.9629 -3.8202 7.90099 11.3621 10.66 -3.3577
160 54 1 4.02151 -3.37949 4.65127 5.80574 -31.0954 0.576175
77 26 2 0.992583 -4.1275 8.21421 0.916891 3.13574 -28.4844
76 26 1 0.919614 -4.21086 9.20968 3.28113 -3.51815 19.0186
271 91 1 1.13441 -0.877794 7.74261 -25.6998 16.8008 -19.7537
78 26 2 0.61785 -3.31561 9.60854 -2.80551 0.0184888 4.20489
593 198 2 2.99038 -3.84064 8.14038 -18.4266 -4.08136 2.12932
292 98 1 3.03748 -6.74253 3.61277 28.8985 -1.35566 17.7554
293 98 2 2.48345 -5.93403 3.43185 -20.5064 13.6666 -8.94994
294 98 2 3.58041 -6.48384 4.45574 -6.90751 -12.5206 -6.71159
218 73 2 1.58455 -0.558152 9.66374 -1.06371 3.48408 21.2021
411 137 2 5.76964 -1.8881 4.24593 13.5144 8.69116 5.97921
410 137 2 6.89229 -0.860674 4.97362 30.8752 6.06145 4.18065
409 137 1 5.92379 -1.11398 4.90426 -46.059 -13.1488 -11.7335
150 50 2 4.34506 -6.52338 7.39952 -3.54983 -1.92306 -3.91265
72 24 2 3.7455 -2.40137 9.17465 3.75114 0.333576 -3.7177
448 150 1 0.02548 -6.74666 5.31126 -35.0872 -2.25867 34.3419
163 55 1 0.843142 -7.0589 9.29501 4.37942 -29.5414 40.7096
400 134 1 6.45831 -6.5612 5.16121 -25.6 -24.1218 7.82024
401 134 2 7.198 -7.07826 4.69952 12.7406 3.86453 -8.06907
273 91 2 0.45351 -1.1355 6.99842 17.1627 -13.1495 15.571
164 55 2 1.33648 -6.24197 9.0354 8.66438 33.1929 -16.7996
149 50 2 4.99907 -7.01558 5.95741 -0.682356 5.28696 1.22668
148 50 1 4.11753 -6.95529 6.49749 7.50908 -1.49899 -2.39109
289 97 1 5.29344 -5.94641 9.39344 -30.0824 -15.5463 0.924688
290 97 2 4.38518 -6.38965 9.70205 27.3668 3.94761 -10.1849
98 33 2 -5.24351 7.27795 4.05472 -1.41295 -11.065 -3.42934
6 2 2 -1.33319 4.09651 3.41246 2.50464 3.28905 10.175
5 2 2 -2.44644 5.37287 3.29675 5.736 -9.62309 9.93946
91 31 1 -3.09226 5.69608 5.13852 10.4352 -16.6312 27.5177
93 31 2 -3.39759 6.60487 4.81411 -8.0376 19.5992 -7.64646
168 56 2 -6.86156 5.35505 4.80532 -10.9826 -9.13984 5.30985
166 56 1 -6.38347 5.97352 4.15528 12.0548 19.917 12.2582
42 14 2 -2.86004 1.09644 6.88708 -9.56705 10.4372 1.70959
40 14 1 -2.45282 0.562151 7.66363 25.6997 -26.3274 -26.8916
205 69 1 -7.15213 7.15931 7.94568 -40.451 27.2279 43.3003
92 31 2 -2.7655 5.75077 6.1235 -0.128707 4.16013 -16.1898
254 85 2 -5.72632 4.24583 6.43309 -5.41342 4.42405 -3.1526
111 37 2 -2.0133 4.33854 7.75742 -1.95418 -33.0807 -23.5789
102 34 2 -4.16134 2.46597 5.61479 5.73041 -3.99902 1.19623
101 34 2 -3.34008 1.73363 4.37991 -3.58123 -4.17874 24.1529
238 80 1 -2.37497 5.78294 8.18023 10.5644 -18.9594 34.0716
240 80 2 -2.29211 5.44892 9.17968 -6.16473 12.66 -29.6026
239 80 2 -2.89104 6.65508 8.14231 -7.17028 10.1952 3.08093
110 37 2 -2.8481 3.22923 6.80572 -18.7001 -5.50237 -11.0178
100 34 1 -3.46244 1.72926 5.4175 -7.94789 6.3825 -23.9348
109 37 1 -1.96896 3.39327 7.25046 31.3746 40.0598 29.3764
63 21 2 -5.54019 1.66198 7.243 7.6451 4.36808 -5.7199
61 21 1 -5.60085 2.18867 8.1089 -9.67894 8.97725 36.7754
253 85 1 -4.74639 3.97908 6.37236 -7.8286 -18.5394 8.49748
255 85 2 -4.21543 4.64414 5.83612 12.8526 22.8319 -18.4011
435 145 2 -1.91745 1.32073 9.26469 -18.3639 -14.8539 -28.5191
62 21 2 -5.02285 3.05251 8.19677 -7.42202 -23.5123 -18.5233
236 79 2 -0.429789 4.00984 6.0186 1.2171 -6.22999 -12.7757
327 109 2 -7.23539 2.67793 8.72496 -19.6978 -0.526871 -1.66562
23 8 2 -6.61306 6.02467 9.72379 -1.67128 5.57591 -16.9566
374 125 2 0.0655153 0.265216 3.36818 -3.38687 -5.32683 5.93575
589 197 1 6.89747 3.03668 3.30126 4.83773 10.0831 -0.569415