ITEM: TIMESTEP
42500
ITEM: NUMBER OF ATOMS
648
ITEM: BOX BOUNDS pp pp pp
-7.2895925695008383e+00 7.2895925695008383e+00
-7.2895925695008383e+00 7.2895925695008383e+00
-1.6199094598891023e+01 1.6199094598891023e+01
ITEM: ATOMS id mol type x y z fx fy fz
368 123 2 -2.2362 -6.71687 -13.1743 0.350203 -35.459 4.33665
367 123 1 -1.91446 -5.77306 -13.31 -8.32991 33.3619 2.27304
369 123 2 -2.76566 -5.19558 -13.1309 8.23359 -4.01247 -4.58757
347 116 2 -1.39424 -5.47507 -11.38 4.44813 4.81984 6.91449
561 187 2 -5.27813 -4.35345 -12.6616 -13.2209 -12.4236 3.85778
331 111 1 -6.78713 -1.69161 -12.9361 0.339645 2.07357 16.1647
333 111 2 -6.87536 -2.63347 -12.5335 5.24974 -8.91569 -2.65082
559 187 1 -4.34271 -4.57887 -13.001 5.16385 12.5303 2.98057
28 10 1 -5.96936 -0.499884 -10.5425 6.0525 -3.25767 6.35056
385 129 1 -7.06426 -4.31028 -12.1007 -16.3242 -12.2443 -12.7319
387 129 2 -7.09814 -5.34412 -11.9085 5.92654 14.9915 -0.0373836
376 126 1 -0.593959 -1.61956 -15.4728 -22.8308 11.7098 3.54684
560 187 2 -3.99447 -3.63972 -13.2449 6.06185 -5.95176 -11.5227
200 67 2 -1.58266 -5.74686 -15.0949 -0.471535 -11.2251 37.0096
391 131 1 -4.43081 -0.177184 -13.8166 -8.98641 4.60606 12.6716
29 10 2 -6.33977 -1.03303 -11.3319 6.74853 -7.69445 -12.4348
357 119 2 -3.9086 -1.6658 -13.8808 0.0290936 31.4198 6.68812
355 119 1 -3.25268 -2.36632 -14.2248 31.3703 -55.2984 -9.19226
356 119 2 -2.29113 -2.41769 -13.8385 -19.0438 11.6735 1.63419
346 116 1 -0.993559 -5.14279 -10.4861 -19.512 -30.2041 8.71576
377 126 2 -1.33348 -1.07325 -15.0063 3.90221 -5.91548 -9.23839
430 144 1 -6.73035 -7.00787 -11.7222 11.2065 -21.6633 -0.165736
585 195 2 -0.270564 -2.11424 -11.6562 -2.26794 1.64319 -2.00631
583 195 1 -0.249153 -1.66535 -12.5838 5.00216 2.49875 7.16746
14 5 2 -3.53381 -6.629 -15.7489 4.88712 3.04627 -0.909395
638 213 2 -4.83644 -3.41862 -9.85046 -2.22697 -2.10949 5.46135
523 175 1 -0.431455 -2.72703 -9.8005 27.2271 -13.6752 -33.4261
525 175 2 -0.602759 -3.73311 -10.0711 -4.67947 16.8992 11.5712
1 1 1 -7.00032 -5.54413 -15.6946 -8.53212 5.01391 -4.19543
3 1 2 -6.0488 -5.80585 -15.4533 9.80813 -5.93563 2.63634
15 5 2 -4.40166 -6.20875 -14.3822 2.24384 3.12647 4.17395
489 163 2 -3.40153 -2.3715 -16.1142 9.71669 -0.670005 5.38464
479 160 2 -6.57571 -1.26127 -15.359 -5.62658 15.9835 -6.01535
13 5 1 -4.46253 -6.54999 -15.3414 -7.7757 2.92652 -0.279965
199 67 1 -1.5625 -5.56972 -16.0693 -2.10934 37.9585 -24.4698
478 160 1 -7.19049 -0.485017 -15.6605 4.17202 -6.64327 43.6576
332 111 2 6.83389 -1.42298 -13.1062 -10.3133 1.14868 -7.32719
386 129 2 6.6332 -4.12778 -12.6328 12.8444 0.490977 11.0548
336 112 2 0.408159 -3.23084 -15.7666 -0.29998 4.72582 -0.842946
644 215 2 0.171217 -6.28318 -13.4168 -9.329 3.72612 1.52502
173 58 2 4.54294 -3.38302 -13.9248 22.0357 -2.01788 8.13731
421 141 1 4.57634 -4.7895 -15.0747 -29.9197 -14.1038 -29.4431
284 95 2 4.93765 -5.47363 -13.6026 0.313104 6.36384 -22.8999
285 95 2 5.12671 -7.16851 -13.5135 3.67152 -6.7346 -14.1826
283 95 1 4.94273 -6.30013 -13.0143 -6.42535 -7.18425 42.5738
264 88 2 2.49018 -2.29709 -15.0917 -21.7534 -18.3815 -4.40655
556 186 1 1.83757 -0.503831 -10.3045 -0.895257 -8.8824 6.96649
262 88 1 2.91457 -1.38429 -15.047 49.064 23.227 -1.49776
263 88 2 3.82407 -1.49522 -15.5327 -18.0395 5.3735 8.18738
174 58 2 4.59379 -2.70868 -12.4204 -0.61053 0.147224 6.34092
172 58 1 5.19336 -3.01269 -13.1985 -14.3785 8.31762 -3.11975
115 39 1 3.20846 -2.53755 -11.2966 20.1007 27.4297 -9.1646
117 39 2 2.89458 -3.45806 -11.509 -21.0602 -19.1546 1.71341
643 215 1 0.702421 -6.87052 -12.78 14.1863 -2.81909 -0.974068
645 215 2 1.1141 -6.29576 -12.0266 2.12014 -0.908135 2.29858
116 39 2 2.49936 -1.79314 -11.1019 5.14591 -16.1624 4.04562
422 141 2 5.11636 -4.29816 -15.8368 -11.9041 -1.46049 16.0899
84 28 2 3.32146 -0.0656386 -13.6027 -10.137 2.50887 6.08702
131 44 2 4.43733 -6.43527 -11.3171 2.52623 14.8736 -20.6842
334 112 1 1.41878 -3.40052 -15.814 -4.63303 -5.16528 1.29594
584 195 2 0.139432 -0.72022 -12.4463 -7.29283 -5.39044 -6.04681
378 126 2 0.0344318 -1.86021 -14.7192 11.1173 -3.03746 15.8201
222 74 2 2.61326 -7.09022 -15.3227 -6.65586 -8.39194 4.72517
130 44 1 4.69334 -6.5674 -10.3493 5.35646 -28.9808 25.701
81 27 2 0.699495 -5.30503 -10.3817 14.6973 0.878329 12.4882
80 27 2 2.38731 -5.20539 -9.77186 -21.6558 -2.33442 -10.5467
79 27 1 1.68981 -5.62612 -10.4443 2.25121 1.56665 -10.1564
198 66 2 3.77096 -0.336425 -9.9776 -10.3099 -8.52665 3.5432
196 66 1 4.78474 -0.351209 -9.90131 15.2296 21.0624 -8.52048
423 141 2 3.76843 -5.31148 -15.4795 22.5692 16.3123 4.64249
2 1 2 6.97084 -6.30992 -15.4341 -4.79506 -2.49772 0.881945
335 112 2 1.5486 -4.36715 -16.1268 6.13274 -10.0477 -0.126633
144 48 2 6.07343 -2.29513 -16.0835 4.12441 9.88696 1.82049
140 47 2 0.318803 -0.403906 -16.0387 12.5263 -11.7871 -7.62576
30 10 2 -6.72069 0.126673 -10.3128 -5.18182 11.8166 8.23902
318 106 2 -4.14032 0.163129 -10.1003 14.2142 4.20147 5.57511
392 131 2 -5.10527 0.110748 -13.117 -10.9863 -2.94478 1.95483
175 59 1 -2.35022 6.12075 -12.9008 5.5498 14.8858 -15.2798
177 59 2 -2.81426 5.66261 -12.142 -5.8055 -8.00042 13.5049
393 131 2 -3.98617 0.691007 -14.0179 12.5928 17.753 -12.4531
176 59 2 -1.82715 5.37228 -13.3964 -4.04916 0.0320124 -2.46657
620 207 2 -3.05642 5.29148 -10.2133 8.91375 2.26088 1.70117
619 207 1 -2.29282 4.65449 -10.4622 -8.7377 -0.442856 0.0297249
621 207 2 -1.37384 5.13349 -10.5721 -3.89788 -1.09856 -1.53096
431 144 2 -6.27607 6.94793 -12.4025 -2.06272 8.56764 -10.0706
265 89 1 -1.39021 3.98317 -14.1561 15.1173 0.858902 4.06229
267 89 2 -2.02525 3.55723 -14.8199 -17.7534 -3.70139 -11.7994
266 89 2 -0.457421 3.92124 -14.5758 5.16798 -0.561402 5.25993
146 49 2 -5.01155 7.2468 -10.698 -7.78686 2.49768 2.34273
520 174 1 -6.22113 5.26506 -13.2859 1.51708 -2.03602 -0.664884
123 41 2 -1.11411 2.2736 -12.5268 -4.39862 -7.10426 13.1412
122 41 2 -1.94136 3.11906 -11.3917 -3.6182 14.2668 10.8988
121 41 1 -1.46956 2.23516 -11.5514 7.33935 -5.11256 -23.7077
521 174 2 -5.83906 4.90289 -12.4098 -1.99365 -9.63917 -10.7056
509 170 2 -5.85693 2.25711 -11.7972 -7.85125 2.15674 -21.2048
358 120 1 -6.06452 2.95799 -10.3657 17.4793 -2.16923 10.2994
508 170 1 -6.03042 1.92828 -12.7847 17.1262 0.875878 23.4838
510 170 2 -6.88796 1.39327 -12.808 -11.8408 -0.200041 -8.00583
522 174 2 -6.19381 4.57768 -14.0641 3.50535 8.73735 14.2213
8 3 2 -0.270973 6.59648 -10.0252 14.1075 -9.19207 -16.137
316 106 1 -3.24208 0.579917 -9.77652 -36.1307 -9.26377 -5.3047
317 106 2 -2.98731 1.27726 -10.4671 18.7955 4.40837 -9.99225
145 49 1 -4.29687 6.92982 -10.0433 14.3112 -12.0815 0.367999
360 120 2 -6.99978 2.73823 -9.98523 -5.19617 4.10572 4.66254
7 3 1 -0.0119416 6.00983 -10.8443 -6.7241 13.4888 10.5617
215 72 2 -4.34576 3.57909 -16.0279 19.6525 -18.917 -7.71766
214 72 1 -3.37657 3.17287 -16.1122 -11.2056 18.5174 19.4504
541 181 1 -5.97945 4.22645 -16.1918 24.3147 -8.70929 18.753
543 181 2 -6.74563 4.89348 -16.0718 -11.9911 3.0617 -7.34376
558 186 2 1.52342 0.491763 -10.2049 -0.00579413 -2.1727 -10.3137
82 28 1 3.38969 0.621885 -12.8308 -0.384751 -5.89127 2.61699
83 28 2 2.74875 0.384702 -12.0555 4.16625 -1.41884 -8.66537
432 144 2 7.22727 6.89719 -11.2806 -9.33278 12.3021 7.95674
617 206 2 0.27348 1.15082 -14.6467 3.25629 0.668843 0.234278
616 206 1 0.312337 1.10655 -13.6256 -6.73771 -4.38734 -3.79454
455 152 2 0.220752 2.22259 -11.0334 27.2466 -14.6302 22.1439
454 152 1 1.13008 1.89259 -10.5815 -20.6476 36.1523 -11.6008
618 206 2 1.18268 1.52349 -13.324 6.02794 4.49421 0.815286
481 161 1 1.3888 3.73046 -14.9865 4.24163 16.3983 7.97219
516 172 2 5.20638 5.23603 -13.5717 4.19133 -4.91737 -0.986574
514 172 1 5.03909 5.92952 -14.3042 -14.3596 -10.4742 8.00946
515 172 2 4.00284 5.98113 -14.3924 7.9136 6.947 -6.96791
38 13 2 5.84703 2.07084 -13.6497 -1.98849 -5.13559 0.39463
37 13 1 5.98391 1.05136 -13.6298 5.79239 -3.87216 4.70172
39 13 2 5.12684 0.60645 -13.2674 -2.3008 10.1964 -2.56736
221 74 2 1.92106 6.80413 -13.9261 -11.0297 10.6622 9.07935
220 74 1 2.4813 6.63948 -14.7571 9.79433 -5.56193 -11.4516
553 185 1 4.3775 3.55825 -12.6273 2.01747 0.396944 -0.614969
554 185 2 3.95451 4.26452 -11.9939 -4.62008 -9.03368 -2.40332
483 161 2 1.87482 4.57175 -14.6059 -10.4506 -17.1778 -16.019
555 185 2 3.82495 2.69147 -12.6673 1.28673 7.14236 1.96279
197 66 2 5.1632 0.258078 -10.624 -4.56788 -3.53999 3.93941
456 152 2 1.63906 2.65731 -10.1173 -13.5103 -5.51119 -6.16942
9 3 2 0.134305 6.60177 -11.6935 -1.36911 -4.07249 9.28197
602 201 2 1.94647 5.64759 -11.1565 3.19032 -3.42444 6.67482
601 201 1 2.94673 5.39808 -11.134 14.4988 30.0872 -7.92988
603 201 2 3.49888 6.29498 -11.0989 -18.9956 -28.16 5.96812
480 160 2 7.16387 0.0580677 -14.7889 4.39579 -8.55295 -25.9175
482 161 2 1.24552 3.77462 -16.0046 2.12954 5.77445 4.61793
597 199 2 5.67212 5.37106 -15.8098 6.79284 13.2572 4.14935
348 116 2 -1.51536 -5.61375 -9.68547 11.1783 16.5915 -17.0392
44 15 2 -7.12755 -5.22698 -8.67998 19.0594 5.85044 -26.1283
476 159 2 -2.32246 -0.514933 -8.97806 11.7689 4.40372 0.42785
637 213 1 -5.22679 -2.87238 -9.08168 0.350028 27.4101 -4.61596
639 213 2 -5.29702 -1.87762 -9.38914 -1.72486 -20.5204 1.75118
56 19 2 -4.98079 -2.69315 -7.13394 9.205 -6.02741 -3.82076
55 19 1 -4.70063 -2.71738 -6.14873 -5.2432 -0.563293 -14.1612
57 19 2 -5.5597 -2.58446 -5.64695 -6.19492 2.27549 14.0587
366 122 2 -4.18306 -4.78592 -5.88106 -11.4635 14.5822 -2.24561
256 86 1 -5.689 -1.31676 -3.32268 3.25834 -12.7669 -7.39473
474 158 2 -1.63461 -1.37861 -4.36574 6.22969 -6.65663 0.717033
475 159 1 -1.90849 -1.19668 -8.30869 -3.13686 18.2412 0.820007
477 159 2 -2.74218 -1.58077 -7.92076 -12.6448 -15.729 17.3056
365 122 2 -2.70196 -5.11379 -5.3264 28.5678 6.63453 20.7348
67 23 1 -2.52488 -6.16308 -8.4469 8.55043 -15.1703 -42.6473
69 23 2 -2.87094 -6.04541 -7.50271 -11.3721 6.42077 19.9003
32 11 2 -0.635965 -5.03675 -3.44411 -8.89887 -5.242 -35.0909
364 122 1 -3.38123 -5.37797 -6.00128 -11.4922 -23.5902 -16.5017
258 86 2 -6.29347 -2.17205 -3.3763 -2.16807 14.6968 1.69818
524 175 2 -0.955584 -2.41104 -8.98782 -9.98582 5.69462 7.09112
534 178 2 -0.343706 -5.98587 -6.81335 8.52825 -10.6873 -1.37712
626 209 2 -6.08341 -6.61868 -3.96468 -17.1351 15.0617 0.110342
68 23 2 -3.16816 -6.74729 -9.02687 2.57065 8.69263 13.455
31 11 1 -1.00709 -4.81527 -4.40669 17.0039 -29.8794 41.1571
276 92 2 -0.380526 -0.335897 -7.56591 -3.77671 -0.621138 -2.57254
53 18 2 -4.40113 -0.570513 -4.15521 24.5054 7.42945 11.4574
52 18 1 -3.43968 -0.136164 -4.11999 -0.967823 -27.9939 8.93434
473 158 2 -0.948375 -1.54757 -5.76055 12.5916 -6.39327 -2.52068
472 158 1 -0.932123 -1.97457 -4.83321 -30.6302 15.6055 -0.00727637
33 11 2 -1.33233 -3.88911 -4.28964 -9.93665 33.7815 -9.58853
576 192 2 -0.10827 -2.5246 -3.54858 26.6355 8.77339 7.47806
233 78 2 -4.16907 -6.91341 -3.24952 -2.74601 8.02343 -0.246748
343 115 1 5.75852 -3.6378 -6.13077 10.2609 -3.54629 -22.8479
557 186 2 1.21155 -1.04345 -9.69546 2.35082 -3.19262 -1.57571
43 15 1 6.8569 -5.63265 -8.00845 -22.0391 -5.4062 37.894
45 15 2 6.74332 -6.64542 -8.06226 2.15878 -0.542803 -9.76632
132 44 2 4.33739 -5.84138 -9.71705 -2.95155 10.6246 -4.09548
344 115 2 5.9954 -4.60192 -6.39643 -3.27813 3.46994 2.53354
288 96 2 7.0011 -2.24286 -8.51539 12.7794 -12.2558 -5.49747
306 102 2 1.93065 -1.10119 -7.27127 -18.2265 0.696386 -0.229369
345 115 2 5.78263 -3.12928 -7.05432 -3.56099 1.82468 23.8709
418 140 1 7.10518 -5.67744 -3.25187 40.0418 -1.01454 -8.0562
419 140 2 7.06787 -4.68213 -3.55509 -20.221 -9.67536 9.91459
438 146 2 0.727553 -3.8394 -5.71682 -34.1058 9.65315 17.2351
436 146 1 1.599 -4.07408 -6.10504 21.3222 -45.4972 0.230823
437 146 2 2.04551 -3.23477 -6.43003 12.842 28.6297 -15.2956
287 96 2 5.93342 -1.02921 -8.53619 -17.8468 -8.40589 -1.96272
286 96 1 6.1146 -1.96113 -8.14519 6.1197 11.4945 3.58213
384 128 2 3.52582 -4.32225 -8.05045 -1.36942 -0.549918 9.51681
383 128 2 3.74882 -3.38164 -9.36832 -1.98324 -14.7783 1.17111
382 128 1 3.60251 -4.36325 -9.05998 3.34051 14.9569 -5.85229
195 65 2 6.58638 -2.94048 -4.71169 -9.24892 -5.02833 12.5956
588 196 2 3.60188 -0.603574 -4.08125 -2.44011 -15.5049 5.49299
304 102 1 2.58584 -1.88265 -7.25518 23.4967 19.9818 8.72989
305 102 2 3.41175 -1.40033 -6.8651 -5.57425 -15.4993 -3.65272
532 178 1 0.390987 -6.70817 -6.79374 -22.8524 7.97339 -2.5298
533 178 2 1.15848 -6.3126 -6.2637 9.38252 0.2981 4.53442
193 65 1 6.89104 -2.9094 -3.71317 0.0573249 -3.49871 -13.6271
274 92 1 0.476693 -0.00214092 -7.1192 2.2854 -2.20785 -6.30762
531 177 2 2.94246 -6.42583 -4.40219 -2.40513 -3.54175 12.6397
529 177 1 3.03974 -6.34175 -5.40144 -6.72649 8.40547 -17.0195
530 177 2 2.56423 -5.46778 -5.70091 8.74687 -2.94221 3.73794
359 120 2 -5.45192 3.01828 -9.53089 -2.43159 4.45302 -11.7122
380 127 2 -3.67637 0.802039 -5.50907 8.8996 5.03844 9.18458
268 90 1 -4.10638 2.86948 -8.32666 -10.0935 -17.8334 15.0164
269 90 2 -3.77449 2.19942 -9.01694 10.9178 -8.49887 -0.175536
270 90 2 -4.19958 2.35756 -7.4137 4.97397 4.84339 -12.7009
147 49 2 -4.60479 6.14273 -9.4485 -7.27171 9.78082 5.93694
59 20 2 -1.74862 4.22065 -8.19885 33.5184 -13.4467 13.0966
625 209 1 -5.44552 7.26596 -4.34398 19.9099 -12.5454 8.41198
381 127 2 -3.46222 2.47704 -5.84219 17.0782 -3.55388 15.5063
379 127 1 -4.09081 1.66129 -5.9078 -25.6499 -0.129977 -31.6526
627 209 2 -5.6652 6.9667 -5.29074 -5.8861 4.9783 -7.85429
490 164 1 -5.01579 4.51847 -4.30142 -36.2717 -23.0599 -36.97
307 103 1 -4.92702 5.20651 -7.84342 -1.36026 0.515588 -5.10682
308 103 2 -4.49101 4.24081 -7.93263 -15.0406 19.7202 0.451888
309 103 2 -5.90343 5.19595 -7.49892 10.8396 -0.177274 0.643959
280 94 1 -2.52876 6.35666 -4.9736 1.17108 -4.45663 -6.27814
282 94 2 -3.16042 7.12684 -4.80687 -9.98953 10.2225 -1.82764
281 94 2 -1.76114 6.74567 -5.4999 12.479 0.887268 -7.52402
470 157 2 -6.3749 2.17506 -5.79447 -0.672633 7.85569 3.15035
492 164 2 -5.71792 4.42108 -5.09466 29.7905 5.96352 35.2597
58 20 1 -0.910671 3.88095 -7.65416 -24.4945 22.7538 -30.5705
491 164 2 -4.7873 5.48119 -4.10035 1.53101 12.608 0.196675
413 138 2 -2.55746 4.2834 -5.11782 1.85217 4.66308 -3.47947
412 138 1 -2.14064 3.41133 -5.46056 1.57321 4.32336 -25.2563
414 138 2 -1.71515 3.54241 -6.44327 -2.93122 -1.09407 39.8069
209 70 2 -5.15524 3.00145 -3.54549 4.30513 -3.90036 0.566853
208 70 1 -5.13879 1.96672 -3.46524 -20.699 8.89559 14.989
210 70 2 -4.61307 1.65277 -4.28493 5.23633 -1.02237 0.591136
60 20 2 -0.0991179 4.50973 -7.81067 -3.88513 -5.8026 2.35472
469 157 1 -7.14033 2.85888 -5.80149 13.0037 -3.91623 -13.78
134 45 2 -2.36485 5.97416 -3.45936 -0.410593 -7.19054 -5.92324
18 6 2 -6.95091 6.34864 -3.26769 -64.7527 -17.098 1.4125
501 167 2 -1.45459 3.11221 -3.85472 5.96972 -16.6863 6.55996
178 60 1 7.12023 5.54832 -6.64462 19.4185 -24.1219 40.3619
349 117 1 6.20786 6.18442 -9.05874 11.3728 -27.2128 -2.04298
351 117 2 6.08386 5.18875 -9.32616 -5.6989 17.9709 4.08113
350 117 2 5.56083 6.78664 -9.58084 -8.55517 10.2825 -3.77252
372 124 2 5.49137 2.35539 -8.7191 -21.4063 8.15892 5.04744
587 196 2 4.03683 0.908451 -4.24146 7.31498 6.82624 -9.51075
586 196 1 3.64078 0.132539 -4.76414 0.831086 6.85907 -0.639425
179 60 2 6.67609 5.78597 -7.50632 -17.8944 12.9629 -33.0589
611 204 2 2.06559 5.36721 -7.1146 20.0215 -9.47291 15.957
622 208 1 3.56216 4.05814 -3.791 23.0926 -3.48043 7.23492
624 208 2 4.41257 3.46728 -3.80301 -12.4303 4.03322 5.94796
119 40 2 3.74487 6.11358 -6.11052 1.87462 7.23887 14.3013
180 60 2 6.89872 4.55895 -6.42182 4.01564 9.07113 0.814353
612 204 2 0.974904 6.50815 -7.39881 -0.0309324 -1.10458 -8.31861
544 182 1 4.03381 3.93141 -8.76855 -3.72597 -4.92074 -0.455279
546 182 2 3.29972 4.04171 -9.46967 5.02431 8.39345 0.964367
610 204 1 1.38679 5.63888 -7.80373 -25.0918 5.19027 -8.98211
370 124 1 6.48837 2.34741 -8.85428 25.4297 -16.1037 -0.582495
371 124 2 6.96547 1.879 -8.07581 -10.4608 8.51869 -0.668991
120 40 2 3.67586 4.59282 -5.22004 -8.96736 15.1464 2.55919
118 40 1 3.4669 5.13567 -6.08658 -0.726009 -9.61446 -37.8832
471 157 2 6.72053 2.51372 -5.16966 -11.7954 -2.4649 9.81109
545 182 2 3.74198 4.42699 -7.91903 2.15078 -1.01539 2.30026
230 77 2 5.89559 2.79429 -3.24842 1.99193 6.25133 13.8137
548 183 2 1.91929 2.80028 -4.36121 -15.2704 -3.04547 14.7391
275 92 2 0.507526 1.01571 -7.12004 -1.39671 -0.476229 3.19778
229 77 1 5.60467 2.0021 -3.83965 4.8384 -9.31795 -5.40909
547 183 1 1.50708 2.17837 -3.64158 26.9359 6.52896 -8.79493
231 77 2 5.97853 1.15131 -3.40611 -5.439 3.44956 -1.10132
16 6 1 6.59143 6.12413 -3.49472 80.1407 23.509 -15.4155
17 6 2 6.56265 6.49635 -4.45184 -14.4591 -8.66533 5.44044
549 183 2 2.33255 1.61697 -3.38369 -22.5909 -4.32582 2.67649
257 86 2 -6.2866 -0.510757 -3.1667 0.137489 2.97598 4.60687
536 179 2 -4.06548 -4.29724 -2.36048 0.755167 -0.55593 -3.76943
300 100 2 -0.397778 -1.81535 -1.11431 7.62846 5.89816 -1.68788
298 100 1 -0.615393 -1.02905 -0.494657 20.8289 -17.1545 -1.74831
299 100 2 -1.61883 -0.879028 -0.666088 -15.6424 15.4423 -0.789802
535 179 1 -4.15305 -3.33225 -2.04099 6.41065 3.26583 7.61497
54 18 2 -3.14931 -0.106793 -3.11994 -6.37537 6.63974 -13.9789
159 53 2 -3.92076 -3.23796 1.30095 -13.2325 -10.3976 -17.8622
157 53 1 -4.76859 -3.49056 0.733958 5.9243 9.29208 4.9241
566 189 2 -6.23625 -6.73853 -1.3206 -12.1913 -6.94258 2.94249
577 193 1 -3.04762 -0.467048 -1.12369 13.5369 4.75408 -2.43201
47 16 2 -1.21277 -2.9161 1.17983 -35.3396 -16.6607 6.55507
46 16 1 -2.16775 -3.38288 1.18525 40.2502 5.62184 0.956897
48 16 2 -2.07697 -4.41387 1.0224 1.27155 12.1386 2.24469
579 193 2 -3.50021 -1.33765 -1.23973 -13.5869 -34.9071 -5.39051
11 4 2 -6.54029 -2.1759 2.82735 10.9841 -2.65042 13.6074
12 4 2 -6.19617 -2.6152 1.27481 0.431154 3.3673 6.88383
124 42 1 -3.90657 -0.166689 3.19189 11.4622 -15.3633 -3.68545
158 53 2 -4.45324 -3.57581 -0.246827 -4.5013 2.44117 5.4691
507 169 2 -0.00831138 -1.47359 0.98952 0.109055 -1.61429 16.3799
10 4 1 -6.8388 -2.0428 1.86368 -2.55765 -8.39104 -20.1708
537 179 2 -4.47062 -2.66464 -2.75209 -3.64736 -3.65059 0.358178
297 99 2 -3.33822 -6.75053 0.306047 0.914776 -2.89076 -4.24641
232 78 1 -3.37839 -6.59746 -2.67474 -19.851 22.4202 -16.9177
4 2 1 -1.72368 -5.99278 0.660361 -0.619557 -3.3808 3.44952
138 46 2 -7.01992 -0.514107 1.68544 -11.6025 16.5459 -5.13528
6 2 2 -1.06021 -5.83204 -0.0935973 3.80355 2.57581 -9.66471
5 2 2 -1.48603 -6.85938 1.16252 -0.122584 6.92799 6.59219
303 101 2 -1.83823 -3.1923 3.21617 -2.12359 -0.115387 -4.79214
125 42 2 -3.68066 -1.17297 3.14433 1.07059 10.8617 2.52052
99 33 2 -6.61291 -7.25969 1.91093 -7.99483 9.74256 -1.00031
420 140 2 6.26125 -6.23837 -3.13178 -14.8912 14.9815 0.870136
539 180 2 2.35039 -2.69166 -0.399859 -13.5543 -18.6197 15.8641
502 168 1 5.08195 -1.2227 -2.41569 -5.19783 -17.0307 4.52525
503 168 2 4.46482 -1.77314 -1.80855 -7.33242 -11.6807 -12.0435
194 65 2 6.25144 -2.29716 -3.17349 -5.02113 -2.24126 -3.41465
538 180 1 3.14529 -2.17259 -0.699079 34.2528 20.5265 -12.3465
540 180 2 3.92787 -2.09542 0.00163449 -14.0503 -9.58407 3.74567
504 168 2 5.2541 -0.511162 -1.65943 12.746 8.74815 -14.5129
575 192 2 1.18863 -1.63147 -2.93774 -5.2815 -12.9225 6.19947
151 51 1 1.75715 -6.84433 -2.48847 0.37876 18.0696 -4.08501
574 192 1 0.660411 -2.5236 -2.82534 -19.0099 5.03394 -3.07125
152 51 2 0.878141 -6.50841 -2.04701 16.1145 -1.13886 -8.49228
261 87 2 4.14354 -0.285119 2.76145 -8.22083 4.04376 -15.4502
512 171 2 4.60394 -5.6223 1.43872 -3.54675 -21.5433 6.82252
635 212 2 0.497651 -4.81104 -0.463712 12.8876 -1.69305 16.0777
636 212 2 0.180912 -4.00447 -1.78917 7.55281 21.5584 -19.3166
634 212 1 0.085177 -4.91894 -1.39116 -19.2877 -19.0287 -1.439
398 133 2 6.08916 -2.09383 1.24051 -13.7018 -2.92272 1.08438
397 133 1 5.08443 -2.31078 1.05822 13.4987 -24.7248 0.289189
399 133 2 4.98275 -3.3637 0.978391 2.55369 25.5452 1.1052
513 171 2 4.90845 -5.42412 -0.257481 -5.54237 -0.665678 13.0445
511 171 1 4.86258 -5.00785 0.690049 -1.3932 34.1302 -34.4201
505 169 1 0.17099 -2.05116 1.84362 1.27939 -16.8627 -13.6568
182 61 2 4.0103 -4.41118 -2.74369 -2.36149 -4.03068 0.586812
181 61 1 4.11961 -5.3772 -2.43917 -18.3947 -13.2226 1.0293
341 114 2 2.65541 -0.86976 -1.44681 -16.7187 7.40101 -11.5546
340 114 1 1.99328 -0.214868 -1.94156 5.66888 0.646419 17.2657
183 61 2 3.20838 -5.90678 -2.47175 18.6091 14.4906 2.58102
484 162 1 6.51228 -6.08436 2.35873 8.70043 -10.0357 -6.97216
485 162 2 6.40715 -5.23162 1.78627 -1.02889 -10.3345 5.73659
213 71 2 1.37809 -5.44551 1.47285 1.16424 0.270348 20.1329
506 169 2 0.339445 -1.5247 2.70988 1.53851 13.4105 -7.68061
211 71 1 1.20257 -4.58405 0.977315 -3.71525 10.6777 -26.0387
212 71 2 0.928184 -3.74141 1.50088 1.93557 -5.37127 11.7863
565 189 1 -6.1915 6.85902 -1.02659 -16.6874 17.5498 -14.8797
567 189 2 -5.19456 6.71333 -0.979994 23.3972 -9.93171 10.6658
648 216 2 -0.0117821 0.387583 0.0939302 10.067 17.1626 13.3843
578 193 2 -3.78255 0.100572 -0.676019 -2.96975 14.5106 -4.20246
126 42 2 -3.08189 0.415217 2.96086 0.450208 -4.54918 -2.33637
292 98 1 -1.50493 6.66826 2.74309 -22.8777 22.5024 -8.09908
562 188 1 -5.00864 1.11582 -0.611038 -25.2697 -28.2152 -8.87858
564 188 2 -5.29152 1.4734 -1.53078 8.5676 9.90043 -1.12522
563 188 2 -4.69697 1.78188 0.0640989 4.66236 28.3533 15.1545
135 45 2 -1.78339 4.62727 -2.70843 -15.4781 7.23142 13.4701
133 45 1 -2.37681 5.47263 -2.55612 18.6318 -11.257 8.57941
296 99 2 -2.91849 6.35062 -0.280365 -0.174033 -6.49376 -6.11821
295 99 1 -3.71521 6.9266 -0.0275073 -2.45774 -0.466629 10.257
20 7 2 -1.55555 2.40525 1.97858 21.0279 8.15328 -9.57041
21 7 2 -3.09626 2.15213 2.28178 -20.9339 2.39987 -2.70382
19 7 1 -2.17894 1.77607 2.4323 -1.40396 -11.7875 9.89567
234 78 2 -2.97555 7.12267 -2.34724 15.344 -18.7939 14.5129
278 93 2 -7.16311 5.77148 -0.114968 0.886105 5.49166 -5.26484
468 156 2 -4.61063 3.46293 2.28552 -17.307 -28.1939 -21.409
466 156 1 -5.09527 2.61861 1.84071 30.0294 39.3225 24.8173
467 156 2 -6.01702 2.5687 2.2492 -9.53356 0.419316 -4.83342
137 46 2 -6.541 0.890442 0.917453 -5.31478 -5.12729 7.44313
499 167 1 -1.31934 2.83149 -2.86309 -5.54887 14.5145 0.38872
98 33 2 -5.22543 6.74354 1.13858 -0.411314 2.22386 2.68657
500 167 2 -0.462739 2.31411 -2.65858 0.875412 1.87377 -13.9214
293 98 2 -2.26463 6.0318 2.50026 -3.32676 -5.36641 5.29357
294 98 2 -0.628067 6.11159 2.8476 1.68073 -6.32895 3.9938
97 33 1 -5.72035 6.84359 2.0374 8.38165 -2.97143 2.20862
253 85 1 -3.68529 4.69602 3.22693 -8.93202 10.8879 2.12879
623 208 2 3.73446 4.89858 -3.22332 -3.63264 -9.58138 1.3881
153 51 2 2.11664 6.92337 -1.9491 -12.6416 -6.57799 0.0626876
321 107 2 4.86936 1.30325 -0.670273 2.86042 1.86394 4.42914
319 107 1 5.54975 0.548023 -0.760344 9.98085 19.8509 10.6293
320 107 2 6.38177 0.702059 -0.165814 -13.5516 -2.51038 3.73981
647 216 2 0.848678 0.559997 1.50357 -0.614437 8.51985 -0.221811
604 202 1 3.79655 5.18566 1.66972 -17.2954 12.7233 24.4935
606 202 2 3.7574 5.40326 2.69412 2.72694 -4.6538 -28.1497
590 197 2 6.98083 0.847881 3.07118 -19.9138 -5.23729 3.18664
342 114 2 1.32874 0.124214 -1.2298 7.99255 -1.38502 -12.4403
646 216 1 0.604821 1.05211 0.636519 -6.53182 -22.4507 -10.1085
605 202 2 4.71736 4.88598 1.36871 9.53494 -0.790716 -0.0418147
312 104 2 1.64573 2.89989 -1.89844 0.952945 -6.20326 16.1286
277 93 1 6.89138 5.18935 0.549373 5.26557 -0.393162 26.6587
136 46 1 7.28279 0.495434 1.50454 31.5181 -9.05301 -14.7996
310 104 1 1.84559 3.09112 -0.89331 -2.29006 -4.69542 -13.401
311 104 2 1.53411 2.36942 -0.229525 -6.40846 -4.26607 -5.96383
86 29 2 2.67817 5.84453 -0.221252 3.45914 -8.76066 3.45221
279 93 2 7.21251 5.44855 1.50604 -8.16007 -8.26667 -23.6844
87 29 2 1.8363 4.63102 -1.0169 6.87767 -6.95756 3.4962
85 29 1 2.07479 5.6396 -1.01694 3.62224 19.639 5.83154
330 110 2 0.536108 4.16401 3.03042 -4.16517 16.2128 2.12187
224 75 2 6.39828 4.83986 -2.73951 -15.2712 -18.0337 24.0611
223 75 1 6.10085 3.99434 -2.14809 8.26539 6.2831 -33.0859
328 110 1 0.477041 5.18356 2.82056 25.7783 -34.748 -11.1528
225 75 2 6.58135 4.01296 -1.26112 2.6648 7.86327 15.5373
329 110 2 0.885095 5.3452 1.88932 1.08782 -2.82558 10.0607
598 200 1 -4.03354 -4.86945 4.02849 -0.609163 18.1452 -5.53592
600 200 2 -4.44797 -5.78059 3.99556 -10.2088 -18.5013 6.13324
599 200 2 -3.06874 -5.04405 3.72494 10.9216 6.22542 4.06854
613 205 1 -1.38678 -5.39832 3.76225 -4.55539 -8.55119 1.05844
614 205 2 -1.59122 -6.37585 3.51988 -4.29124 -5.56593 -8.52814
301 101 1 -2.06469 -2.63112 4.03825 -12.1648 -15.9585 15.0949
302 101 2 -2.47548 -3.27826 4.75087 9.24424 13.4438 -10.7451
615 205 2 -0.404153 -5.44882 3.97707 14.9589 9.5038 1.07504
51 17 2 -3.91354 -1.92616 7.71678 3.24631 -0.347196 -3.20684
49 17 1 -4.81602 -2.39238 7.88665 -11.5571 14.7436 1.18331
50 17 2 -4.78957 -3.42395 7.7593 2.92496 -1.56365 1.88071
404 135 2 -6.14124 -4.64314 4.59163 -2.79347 -7.22154 0.628962
403 135 1 -6.92322 -5.29842 4.70817 30.2537 -7.02571 -15.7098
25 9 1 -4.86474 -4.97752 7.91036 7.59558 -1.14636 1.58454
26 9 2 -4.17718 -5.71599 8.11463 -8.54973 -1.45621 -5.13676
27 9 2 -5.72387 -5.37324 7.52902 0.801164 -4.34949 -0.515238
495 165 2 -2.76775 -4.30942 7.30828 -16.08 -8.6933 -4.2504
493 165 1 -2.18932 -3.69174 6.76663 -16.0099 1.66406 -3.80106
428 143 2 -4.78699 -3.46931 4.05927 -22.9414 39.1351 16.8787
427 143 1 -5.43066 -2.61008 4.21719 10.44 -30.4303 2.99214
429 143 2 -5.57381 -2.2787 5.19556 10.0449 -12.643 -22.1531
494 165 2 -1.35186 -3.71304 7.31558 29.8517 6.17575 0.70322
271 91 1 -2.7581 -0.547665 7.58349 -5.96981 8.1144 -2.01514
163 55 1 -1.29453 -5.97362 8.77672 38.0125 -14.3812 32.8587
273 91 2 -2.36872 -0.867748 8.47682 3.20319 -3.0959 -7.43124
91 31 1 -3.15542 -7.06871 7.01913 21.116 11.3032 18.406
93 31 2 -3.69428 -7.14601 6.16624 -9.50233 -8.53847 -13.1254
272 91 2 -2.09277 -0.472208 6.7992 4.0072 -6.64957 8.31232
165 55 2 -1.92315 -6.55836 8.26245 -19.0679 -7.34539 -18.2664
75 25 2 -3.22113 -2.98722 9.53069 4.67216 6.26865 4.74646
246 82 2 -5.79681 -2.24484 9.54538 6.13637 1.91816 -8.3792
449 150 2 -0.734765 -6.68734 6.08622 10.2346 -2.41286 -2.85237
78 26 2 -0.0650859 -5.07099 7.97861 6.1669 21.5257 -12.0817
206 69 2 -7.13141 -7.22016 7.75177 -23.1308 16.5206 10.2126
63 21 2 -5.73093 -1.24227 6.79967 6.83553 2.44283 4.45567
61 21 1 -6.41278 -0.747335 6.21341 -17.8449 -4.45226 1.78547
62 21 2 -6.02645 -0.0962386 5.49497 9.42536 -1.10477 9.01354
111 37 2 -1.19143 -1.84297 5.22634 -28.1256 -16.7306 -8.93335
109 37 1 -0.572173 -1.12539 5.55658 21.2823 16.6513 20.1817
164 55 2 -0.730283 -6.65309 9.3608 -14.7641 17.3778 -13.2021
486 162 2 6.65387 -5.87919 3.34539 8.82204 4.52717 8.07889
260 87 2 4.4941 -0.716751 4.19297 -28.8262 7.65118 -8.8986
88 30 1 5.66114 -4.10111 5.87466 -32.2717 22.7801 23.9754
259 87 1 3.68515 -0.290476 3.66227 39.9279 -15.2428 26.5873
89 30 2 5.00067 -4.83873 5.61578 1.72161 -3.48387 -6.59929
411 137 2 6.76137 -1.08916 5.33245 23.4128 -0.533136 17.3714
410 137 2 6.1054 -2.36179 4.48257 0.314234 8.31302 4.71077
409 137 1 6.09443 -1.34152 4.61742 -32.1835 -13.2272 -13.7711
405 135 2 6.84053 -4.72944 4.89501 -17.6631 8.86235 19.9146
90 30 2 5.19062 -3.60903 6.68521 18.1191 -15.1679 -20.1639
580 194 1 4.25717 -3.41733 8.21842 9.51162 14.8324 -19.3149
582 194 2 4.74516 -3.36302 9.10246 3.64185 -4.92895 14.8671
161 54 2 1.034 -3.91372 6.15211 -12.4704 19.1783 -25.294
162 54 2 0.366783 -3.03321 4.79835 -17.8405 8.86519 4.69191
581 194 2 3.31097 -3.74767 8.29696 -11.2969 -8.76948 5.97577
390 130 2 1.56134 -4.78639 4.49808 10.1979 -8.77322 -5.46677
402 134 2 3.89362 -6.62158 5.77764 0.0402454 12.3956 -15.6992
388 130 1 1.68897 -5.74556 4.0701 -26.4704 -11.6047 -12.1117
389 130 2 2.66244 -6.03494 3.96411 11.5219 6.36848 8.52447
160 54 1 1.14563 -3.55264 5.15461 23.8034 -12.2117 27.2875
77 26 2 0.821678 -3.81819 8.44853 0.09833 9.97948 7.14774
76 26 1 0.411589 -4.20234 7.60532 -6.03228 -31.6947 14.5867
218 73 2 4.02924 -1.34792 8.2588 6.0171 1.19539 2.57689
400 134 1 4.20719 -6.44564 4.78534 7.51474 -9.37027 26.6502
149 50 2 2.58961 -6.43139 7.82007 -17.3045 7.0466 13.767
148 50 1 3.32087 -6.83686 7.2675 26.38 -50.2967 -14.0732
290 97 2 6.12797 -5.88202 9.41475 -6.23625 13.5809 12.2436
217 73 1 3.94123 -0.493229 8.8193 7.95949 -11.0655 -15.0489
110 37 2 0.00950584 -0.952027 4.73655 5.52128 16.8814 -0.695131
450 150 2 0.656623 -6.72922 5.15557 14.5148 10.2978 -15.7596
375 125 2 1.20756 -0.71526 7.32011 -0.0366004 7.293 -8.0549
373 125 1 0.928803 -0.244076 8.17452 13.3973 3.67741 -7.81506
448 150 1 0.174749 -7.14737 5.93565 -25.8232 -6.14701 16.4792
236 79 2 1.92085 -0.0879094 3.91453 11.2005 -7.32981 -7.94687
374 125 2 0.23557 -0.871272 8.54125 -10.4746 -7.686 10.8074
235 79 1 0.954247 -0.0130379 3.5767 -7.38249 23.1974 3.45214
289 97 1 6.21603 -6.35885 8.5384 12.4015 -18.7826 -17.8037
291 97 2 5.38703 -6.35662 7.94663 -8.33901 5.74267 4.59441
219 73 2 2.98647 -0.531277 9.15543 -11.1281 10.3225 7.29956
167 56 2 -4.91841 7.1741 3.50001 1.81415 -13.1798 6.08149
41 14 2 -3.95102 1.88142 7.79539 0.683012 5.75977 0.686672
168 56 2 -5.45629 7.09987 5.01683 -13.9586 0.60908 14.7745
166 56 1 -4.60431 7.01538 4.48699 4.13358 4.71181 -20.2652
42 14 2 -5.1392 2.96663 7.46973 -5.34202 0.756749 3.81486
40 14 1 -4.13953 2.8872 7.69748 6.43248 -12.4103 -1.11383
205 69 1 -6.40893 6.82326 7.29631 16.6445 -16.6632 -16.3035
92 31 2 -3.21719 6.72572 7.65929 -9.85454 -9.53084 -3.75502
254 85 2 -3.99962 5.52692 3.75357 -3.92561 5.23352 -12.5381
102 34 2 -4.68517 0.545807 4.28228 -3.59535 2.61124 -0.270918
101 34 2 -5.83547 1.60938 3.92001 1.8289 -4.97323 18.1225
238 80 1 -2.33144 3.22654 5.55163 14.9408 4.30644 -30.0665
240 80 2 -3.08349 2.89785 6.09875 -29.6698 -16.2196 21.6969
239 80 2 -1.96079 4.01678 6.0353 14.4712 15.1821 6.12603
100 34 1 -5.42103 1.14245 4.73953 -1.61328 12.8596 -9.89015