ITEM: TIMESTEP
4000
ITEM: NUMBER OF ATOMS
648
ITEM: BOX BOUNDS pp pp pp
-7.4043573976619248e+00 7.4043573976619248e+00
-7.4043573976619248e+00 7.4043573976619248e+00
-1.6454127550359942e+01 1.6454127550359942e+01
ITEM: ATOMS id mol type x y z fx fy fz
76 26 1 -3.48945 -3.42112 -14.5243 -10.4088 -9.7105 4.7146
78 26 2 -4.08124 -2.6869 -14.9334 7.76216 7.51111 -2.52905
77 26 2 -3.91216 -4.30714 -14.8424 13.2986 -0.0760577 2.27968
269 90 2 -5.50419 -6.22586 -13.0915 -5.32373 4.21793 -2.86695
75 25 2 -2.80135 -4.13891 -12.9833 -7.93369 -4.70441 2.80879
123 41 2 -7.01841 -3.93425 -10.8821 -1.55575 13.8294 -13.5587
73 25 1 -2.78585 -4.56204 -12.0391 0.468708 9.82322 9.95077
74 25 2 -3.7327 -4.74534 -11.6764 8.81072 -2.46749 -11.7577
531 177 2 -5.312 -2.61111 -12.4706 -0.578976 11.8761 -8.29394
295 99 1 -4.84391 -0.865998 -13.0402 -12.4949 -5.40769 2.90198
55 19 1 -0.0618284 -2.60189 -11.8196 16.0501 22.7736 0.67027
300 100 2 -0.0917152 -2.07417 -16.0669 -0.830213 -0.00745279 -1.31926
268 90 1 -4.88651 -6.9604 -12.7701 3.85776 -9.89052 0.212737
381 127 2 -1.88244 -0.394875 -14.2027 3.53226 2.66835 14.6613
529 177 1 -5.43019 -3.15183 -11.6194 1.86792 -16.2635 15.0444
297 99 2 -5.05459 -0.00702352 -13.5842 -1.55561 -1.38335 -2.69858
296 99 2 -3.8403 -0.964978 -12.942 6.73644 5.8604 -4.48149
170 57 2 -0.144345 -5.70763 -11.7738 -7.38866 -1.74853 -2.08386
56 19 2 -0.88708 -2.86531 -11.2705 2.71385 -3.08923 1.15838
298 100 1 -0.795271 -1.61716 -15.4782 0.67518 -0.31748 9.20754
299 100 2 -1.37969 -2.33684 -15.0505 -1.69986 1.72988 -4.18927
625 209 1 -3.56276 -6.15745 -15.3894 -10.8116 -6.2482 5.56983
627 209 2 -2.74036 -6.54489 -15.86 -8.05753 -3.22048 7.65674
587 196 2 -6.48578 -0.417183 -12.3043 -0.193395 5.02161 -10.8018
129 43 2 -2.07976 -3.76992 -10.6104 -9.85083 -3.69156 -1.96493
530 177 2 -4.60854 -2.96947 -11.0436 -3.03974 4.72537 1.92821
190 64 1 -3.61632 -1.14463 -9.91889 -0.913643 -1.04565 -0.780522
192 64 2 -3.1401 -0.273823 -10.178 3.0075 -4.17781 -1.15471
200 67 2 -0.24449 -6.57465 -16.2917 -9.94981 12.0064 -0.109916
626 209 2 -3.96865 -6.80629 -14.682 10.462 11.9293 -12.9939
121 41 1 6.77232 -4.06413 -10.9589 7.32566 8.10455 0.861491
122 41 2 6.71872 -5.07168 -10.6677 -7.97 5.80692 -0.572552
90 30 2 6.15681 -0.874224 -11.4838 -2.53288 18.6433 -2.24359
57 19 2 0.156354 -3.17613 -12.6268 -3.2017 -9.19158 -2.4894
585 195 2 3.54184 -6.56864 -15.8876 3.55522 8.20046 -5.12959
368 123 2 1.70127 -7.33974 -14.5702 -4.41234 4.03086 -4.57891
12 4 2 7.28752 -7.21118 -10.454 -9.91422 12.9491 -4.62485
89 30 2 5.94204 -2.32761 -11.9258 -11.8817 -7.90065 1.4659
88 30 1 5.38547 -1.48079 -11.7718 22.2719 -17.9044 1.4861
515 172 2 1.29262 -3.49728 -15.8044 -2.21459 -0.979659 6.7799
169 57 1 0.810526 -5.68778 -12.1068 11.2193 12.2106 4.2311
171 57 2 1.40178 -6.09486 -11.367 -6.51807 -2.23011 -11.2659
161 54 2 4.45596 -1.0132 -14.9181 0.515513 4.12871 -7.88807
162 54 2 4.59806 -1.65945 -13.3793 0.592325 1.99143 -4.12157
160 54 1 4.34705 -1.86506 -14.3574 -3.42749 -10.2817 12.0639
26 9 2 6.95871 -4.81364 -14.9185 -0.860289 0.934002 3.55681
25 9 1 7.13522 -5.52761 -14.2123 4.87677 4.01445 -3.04385
27 9 2 6.64412 -5.33531 -13.3417 -0.416217 3.88443 1.19295
179 60 2 2.80192 -3.03014 -14.0779 7.2824 6.65152 -3.17158
178 60 1 1.89922 -3.49523 -14.1827 -8.73492 -6.91559 0.255084
180 60 2 1.85446 -4.31176 -13.5699 -0.98404 -0.271702 1.32105
583 195 1 3.57 -5.68764 -16.4072 4.80145 0.538757 19.8619
260 87 2 4.7984 -3.65149 -10.2201 -9.02872 2.61484 2.12042
282 94 2 4.16701 -0.437325 -11.6415 -1.10548 -3.89804 -10.4741
324 108 2 0.801241 -0.800324 -12.1862 -6.37331 -4.59608 0.820008
10 4 1 6.81071 -6.36999 -10.03 8.61721 -25.2361 -0.925665
483 161 2 1.05671 -2.29238 -10.2926 6.27272 -5.3693 1.48572
342 114 2 5.21916 -6.36483 -9.87772 -2.36751 -15.2317 4.76374
199 67 1 0.521953 -7.2054 -16.4163 4.97284 -12.5436 0.221456
237 79 2 6.45548 -6.89149 -14.7743 2.53588 -7.08309 9.56173
588 196 2 -6.63121 0.193366 -10.845 -10.1792 9.83256 -6.28194
270 90 2 -5.44438 7.20855 -12.1813 0.596906 3.80077 -0.820517
205 69 1 -6.88681 6.47413 -11.3241 -10.7999 3.47413 1.89567
206 69 2 -7.25971 6.03635 -12.1899 4.39797 -0.866472 -0.718093
207 69 2 -6.7561 5.70191 -10.6326 15.5391 3.36063 -4.74462
9 3 2 -2.23677 3.44077 -12.5346 -8.0781 1.6094 5.4924
215 72 2 -7.20483 1.90647 -11.8571 -5.37799 2.22267 7.56136
639 213 2 -4.27447 4.05146 -13.6006 -3.90969 2.62381 -1.5142
445 149 1 -5.97685 4.50994 -9.92731 -13.275 -18.22 -1.95703
197 66 2 -1.50032 1.57935 -10.6199 -5.38178 -3.49873 1.19831
637 213 1 -4.51142 4.81056 -14.2726 1.74911 -17.4624 9.45775
638 213 2 -3.57136 5.1906 -14.4042 0.730459 11.522 -11.5412
623 208 2 -2.27411 6.92798 -11.3649 3.1516 3.9752 -8.29095
446 149 2 -4.95184 4.51206 -10.0823 1.12969 8.57787 0.0762968
379 127 1 -2.29251 0.317646 -13.5739 -15.3127 8.88835 -15.0879
216 72 2 -6.98712 3.46871 -11.1607 6.54914 -4.28862 6.08332
8 3 2 -2.90986 1.991 -12.9521 -4.1779 -2.06775 -0.971864
7 3 1 -3.11969 2.98477 -12.81 11.5485 0.466589 -5.60116
329 110 2 -6.37495 4.80956 -13.6993 7.49524 1.46071 -4.06714
624 208 2 -3.01213 7.03465 -12.8206 -1.39858 8.79886 4.85248
622 208 1 -2.08915 6.97142 -12.3744 -6.93789 -11.3082 3.64921
97 33 1 -0.834984 4.56131 -11.982 -8.98837 -25.152 3.30995
98 33 2 -1.27891 5.39423 -12.3804 6.3959 7.60103 -4.51637
380 127 2 -2.13885 0.301687 -12.5359 15.0962 -9.1402 -12.1837
562 188 1 -3.36925 4.78522 -9.99325 -3.17314 11.071 -16.8995
555 185 2 -6.79528 1.43915 -14.703 5.15201 -4.8458 7.56158
198 66 2 -0.568937 0.538109 -11.4141 -1.71919 -6.09172 -3.58976
196 66 1 -1.55921 0.707699 -11.1526 9.54428 11.6823 17.5604
586 196 1 -7.12199 0.179239 -11.7607 18.2584 -18.3213 22.4771
328 110 1 -7.345 4.98716 -13.4383 -1.10152 6.28725 -10.2581
99 33 2 -0.0428047 4.13496 -12.4824 4.42317 11.786 -2.04744
479 160 2 -0.724544 5.23048 -10.424 14.0155 3.03067 -4.88115
189 63 2 -1.14262 5.6577 -15.4514 -10.6875 -0.0162971 -5.49497
636 212 2 -5.48002 5.6362 -15.8535 0.636909 6.16486 -7.72512
187 63 1 -1.96673 6.07115 -15.002 18.3273 -0.58579 13.2256
188 63 2 -1.61784 6.49605 -14.1221 -11.111 0.19271 -7.41095
345 115 2 -5.03357 3.57754 -15.6129 2.81694 12.7549 7.45903
271 91 1 -2.32073 1.73168 -16.1686 -0.303936 11.9114 -2.12029
272 91 2 -3.26409 2.08144 -16.2886 -11.031 2.89436 -9.40506
273 91 2 -2.13492 1.83637 -15.1741 4.76119 -11.1788 5.50865
553 185 1 -5.81078 1.22334 -14.4514 -7.69389 9.99559 -15.6948
554 185 2 -5.28847 1.62823 -15.2313 1.5392 -2.83214 3.04892
367 123 1 1.77886 6.50101 -14.2644 8.82053 -7.88219 12.3302
541 181 1 1.79512 6.6567 -11.4815 21.572 -14.5738 7.88748
543 181 2 1.96501 6.84254 -12.4782 -9.86793 4.18626 -0.0372399
214 72 1 7.17127 2.81476 -11.6008 -6.12815 6.18064 -14.4241
518 173 2 6.60897 2.92468 -15.9499 -3.64913 7.33192 5.4701
354 118 2 0.351644 0.457715 -15.0925 0.132332 10.2011 -13.6433
519 173 2 6.17051 2.53763 -14.3086 0.930953 2.95153 -17.8273
352 118 1 0.730697 1.36463 -14.788 -10.7557 -23.0861 16.7932
330 110 2 7.02948 4.11505 -13.1445 -2.93641 -4.40766 7.15239
517 173 1 6.50346 2.19343 -15.2222 2.87005 -15.6626 14.1217
542 181 2 2.2883 5.78665 -11.2744 -5.89122 0.64055 -0.381138
353 118 2 0.838522 1.11362 -13.7932 1.02379 10.4344 2.76525
323 108 2 1.97715 0.312625 -12.0064 -1.51813 3.51556 -0.0636444
236 79 2 6.48877 6.25956 -14.3276 4.98329 0.740543 3.20239
280 94 1 3.5116 0.337262 -11.849 3.83123 10.3845 13.3833
281 94 2 3.88843 1.09631 -11.2375 -6.06674 -4.95372 -4.10569
322 108 1 0.943152 0.21112 -12.1393 -1.78348 -1.8939 -4.71497
292 98 1 1.88109 4.14754 -12.993 1.76448 2.97104 0.72807
293 98 2 2.81471 3.76528 -13.1275 -0.932295 -7.84076 1.11156
294 98 2 1.91129 5.09853 -13.3889 -4.35581 0.402507 -0.97086
244 82 1 3.22907 2.39346 -14.9046 -0.233669 -15.9861 2.70579
245 82 2 3.47128 1.45205 -15.2412 13.0555 6.00624 -4.96102
148 50 1 5.10356 5.46275 -11.5949 -11.2165 -0.144633 -3.2896
149 50 2 5.91509 5.45874 -10.9844 -3.48943 1.80204 1.99444
433 145 1 4.68996 4.4487 -15.577 -1.84634 14.6571 -10.9276
434 145 2 4.63329 5.35128 -15.0845 -0.644228 -11.2914 1.40471
246 82 2 2.29258 2.1601 -14.5619 -10.2953 9.42792 -1.64367
150 50 2 4.38572 6.13029 -11.3184 9.13954 -1.25729 1.2469
645 215 2 5.36996 0.925045 -15.7235 -5.47074 -10.2326 -7.29397
435 145 2 4.10141 3.66171 -15.2422 0.147129 2.83449 9.69965
480 160 2 0.742069 5.98661 -10.0361 -1.78782 6.5174 -8.75735
224 75 2 5.17687 2.44583 -11.0262 8.27276 4.43999 19.1048
223 75 1 4.70629 2.0164 -10.211 -8.17073 -5.10437 -6.51455
369 123 2 1.26844 5.93512 -14.9389 -0.438357 4.51963 -6.29551
235 79 1 5.97515 6.99816 -14.8246 -15.5975 -6.00496 -2.46495
335 112 2 0.0320613 2.86638 -15.8718 14.7793 9.0716 -3.3571
643 215 1 4.68858 0.226704 -16.0992 8.87813 11.3794 10.9667
450 150 2 -6.57406 -0.720729 -9.18178 -2.73792 -7.70271 15.8048
11 4 2 -7.3331 -6.15814 -9.2414 -4.47646 -4.94387 -0.119495
363 121 2 -3.79626 -4.74426 -7.60323 -3.58428 1.61826 4.29114
361 121 1 -3.25997 -5.10452 -8.37864 0.758522 -11.8263 2.97634
425 142 2 -3.84707 -3.13214 -4.22316 10.6965 0.13731 -10.4253
128 43 2 -2.52709 -2.3792 -9.70689 0.072343 0.663411 -6.87449
127 43 1 -1.82482 -3.13242 -9.84603 2.71575 -3.09775 9.39374
22 8 1 -5.81722 -4.11842 -6.1623 7.61554 9.79984 -9.61859
24 8 2 -6.11302 -4.45416 -5.23521 -0.592254 -10.0759 -4.02127
23 8 2 -4.89994 -3.71637 -5.89088 0.837798 1.99491 -7.60064
424 142 1 -3.44641 -3.13313 -5.18322 -7.37764 0.258459 10.8996
426 142 2 -2.60235 -2.57085 -5.06376 0.579512 -2.53379 -8.06362
96 32 2 -1.53434 -0.339027 -3.54626 4.65751 -7.88533 6.01427
80 27 2 -2.43924 -7.04889 -8.45511 -3.14742 -5.42987 -4.7847
601 201 1 -6.39629 -6.22714 -8.08607 -0.441493 -3.83249 21.8987
602 201 2 -6.02454 -5.50286 -7.48806 8.63205 19.654 1.85529
603 201 2 -6.68823 -6.8999 -7.38122 -4.07411 -9.74552 -7.44787
485 162 2 -7.2957 -2.96145 -8.85702 -3.44357 -3.51712 -0.632363
191 64 2 -4.54051 -0.889424 -9.54706 0.260638 5.40008 1.01478
414 138 2 -0.11263 -4.34125 -4.64069 5.17738 7.24965 -5.26568
489 163 2 -3.32404 -6.00445 -4.26704 0.692844 18.2046 -3.70756
484 162 1 -6.83392 -2.36788 -8.1755 2.86981 0.246946 4.49035
486 162 2 -6.33786 -2.95288 -7.47957 -5.27348 1.00552 -2.06429
141 47 2 -0.483141 -2.91667 -8.0422 1.99018 -7.82544 -1.1485
139 47 1 -0.209937 -3.53032 -7.26631 -3.16605 8.22061 3.82871
633 211 2 -0.157607 -2.51025 -5.87259 -0.412199 -14.0775 1.97268
632 211 2 -0.631469 -1.0814 -5.44754 1.87615 -0.566424 7.0807
631 211 1 -0.390474 -1.99208 -5.01144 -13.0945 9.98292 -10.6391
362 121 2 -2.52243 -4.44449 -8.59811 8.1851 7.79977 -6.11231
172 58 1 -5.50303 -5.05747 -3.75607 -5.628 -2.24802 16.4681
173 58 2 -5.85551 -4.17743 -3.35619 3.23829 -9.135 8.98476
488 163 2 -1.55493 -6.0188 -4.41474 -6.67494 14.0234 0.214409
487 163 1 -2.43054 -6.47032 -4.14271 9.55539 -34.3477 -2.91375
261 87 2 3.90079 -4.91582 -9.67382 -0.489417 11.0518 -2.07767
259 87 1 3.90726 -3.87263 -9.74731 13.7089 -13.3661 -0.777659
481 161 1 1.67838 -2.1888 -9.47581 -4.12671 13.5732 2.61239
482 161 2 2.59916 -2.62931 -9.61281 -5.6262 -8.11895 -6.70698
548 183 2 4.32245 -3.03628 -8.0632 15.5884 -2.79159 -1.40833
547 183 1 4.63543 -2.17053 -7.60874 -35.339 0.202668 -3.49877
549 183 2 3.74857 -1.66016 -7.69043 14.3629 5.30852 4.96352
412 138 1 0.496386 -5.01392 -4.18612 1.06309 -6.76918 4.36561
413 138 2 1.47696 -4.90421 -4.46903 -9.4652 3.42865 -0.303363
232 78 1 3.08929 -2.7499 -4.05484 9.75826 2.07047 -8.06375
234 78 2 4.09716 -2.95562 -3.97463 -4.53473 -1.76829 0.501107
338 113 2 6.74083 -2.5223 -3.7035 -13.1974 -0.628314 -8.51636
464 155 2 1.41206 -0.296505 -6.02011 -1.09497 14.3973 -2.00498
465 155 2 2.27236 -1.32242 -5.20034 2.87014 -0.333444 19.1088
463 155 1 1.98459 -0.335993 -5.17258 4.61272 -11.5714 -7.89899
83 28 2 2.22853 -5.40784 -8.93807 -10.0017 -12.2863 16.4986
140 47 2 0.303579 -4.33449 -7.65108 4.91437 -1.71941 -3.63337
82 28 1 1.41505 -5.60062 -8.33066 -7.06845 20.2146 -14.842
84 28 2 1.49553 -6.3825 -7.661 14.6735 -4.33364 -0.730152
455 152 2 6.04373 -7.39028 -5.4363 -9.78499 -1.16352 -11.0178
620 207 2 1.28385 -0.55938 -8.48789 1.66401 -0.671869 4.61809
69 23 2 7.07971 -1.23623 -7.09755 -0.485436 -2.19631 2.77592
67 23 1 6.61425 -0.71261 -6.33585 -12.7101 -7.99516 -0.803203
68 23 2 5.65443 -1.08239 -6.36081 5.76138 -5.32074 -3.68668
340 114 1 4.21508 -6.55683 -9.66418 -10.4769 3.65268 -0.91815
307 103 1 6.01169 -6.94327 -3.62781 -2.33669 1.36999 -9.50373
563 188 2 -3.09733 5.62194 -9.42797 -1.02965 -14.1883 4.41646
448 150 1 -5.97532 0.101979 -9.13861 4.40946 8.26392 -25.0502
79 27 1 -2.34711 6.73563 -8.56193 5.75637 12.7685 8.12401
181 61 1 -6.07744 0.729811 -6.53126 23.6189 10.119 9.95626
182 61 2 -6.82915 0.0687105 -6.28113 -14.1868 2.31216 -4.07812
81 27 2 -1.44336 6.47403 -9.01699 -1.40154 3.57905 2.77986
447 149 2 -6.15797 3.93808 -9.08467 1.42524 3.55104 6.17166
502 168 1 -6.1801 3.33462 -7.48687 7.81364 -8.8496 -14.7844
503 168 2 -6.15982 2.36425 -7.13741 -3.18382 0.91794 4.67408
94 32 1 -1.98922 0.538815 -3.32067 -3.50576 17.3592 -9.77835
471 157 2 -1.47145 7.13889 -5.4061 2.25191 -5.03062 -9.03349
449 150 2 -6.04245 0.584117 -8.22917 -0.562834 -8.01093 4.79403
283 95 1 -2.89832 2.99194 -7.74357 -3.13957 -1.82541 1.84979
285 95 2 -3.87589 2.85754 -7.5133 -10.658 4.25326 -7.14276
284 95 2 -2.44659 2.59616 -6.91276 0.996221 1.43459 5.7754
183 61 2 -5.38109 0.554145 -5.79011 0.940577 3.21492 -2.08481
618 206 2 -5.26432 1.29081 -3.97454 -0.392016 -6.13884 4.56739
616 206 1 -4.58002 0.527995 -4.09304 -23.2083 10.2111 -13.1473
617 206 2 -3.64466 0.850594 -3.86 7.8836 -8.03866 6.45694
564 188 2 -3.31074 3.89329 -9.51342 10.4084 -2.41976 15.1124
321 107 2 -2.25729 1.91013 -4.35399 0.459419 -2.51086 -1.68614
319 107 1 -2.22121 2.51026 -5.19231 17.658 7.02137 3.81871
477 159 2 -3.64761 6.39954 -4.08823 2.37906 0.13415 -2.18152
320 107 2 -1.41682 3.14884 -5.04065 -5.3486 -5.61748 2.45868
606 202 2 -0.199057 0.704891 -7.11322 3.11391 11.8227 -6.08154
604 202 1 -0.863517 0.345611 -6.43368 -11.5001 -16.3345 19.862
605 202 2 -1.47702 1.02139 -5.94696 11.0145 1.69531 -11.8617
109 37 1 -6.77689 4.80616 -5.37678 -6.70781 -8.17286 -5.64509
110 37 2 -7.32421 5.63153 -5.66869 5.18534 1.57645 10.1008
504 168 2 -6.37826 4.00195 -6.72614 -2.59626 -1.48277 8.18222
306 102 2 -1.18812 3.36821 -7.9781 -2.32784 -15.6013 -7.72538
470 157 2 -1.42255 6.43103 -6.96493 -3.74519 5.89842 1.03634
469 157 1 -0.949665 6.52837 -6.0557 -1.1345 -3.54617 8.09667
478 160 1 -0.191911 5.74754 -9.69207 -10.619 -8.57214 13.3727
305 102 2 -0.179595 4.16688 -8.87312 8.93634 -0.843415 -7.66255
304 102 1 -0.30453 3.2254 -8.485 -0.0822815 16.7061 8.97817
230 77 2 -0.584474 4.84599 -5.26621 15.0235 11.3874 5.28045
229 77 1 -0.0952809 4.29825 -4.54177 -13.8652 -11.2298 -0.732084
111 37 2 -6.06583 4.91935 -4.64589 -4.23524 11.512 -1.69789
476 159 2 -3.38855 4.87329 -4.73367 1.46978 -3.82978 -2.91521
475 159 1 -3.92742 5.41682 -4.06881 -4.78993 8.23228 4.63955
277 93 1 -6.95683 2.21351 -3.71235 -10.6372 -0.140635 2.85581
456 152 2 5.44116 7.16946 -7.09261 -7.03049 9.58242 5.05109
209 70 2 4.74881 5.10759 -7.53542 7.45306 3.54932 7.64132
118 40 1 1.84613 7.27183 -6.53442 0.206255 -14.046 15.2971
120 40 2 2.50868 6.7612 -5.94942 2.62095 6.6083 -8.80278
119 40 2 0.930961 6.88698 -6.28472 -7.85106 5.28576 -5.87186
468 156 2 5.0923 0.79091 -6.29188 -5.99959 -5.24405 1.36358
467 156 2 3.53821 0.282732 -5.73831 0.895288 10.3438 -4.73455
466 156 1 4.08984 1.00655 -6.23902 8.60011 7.20211 2.42695
454 152 1 6.05317 6.88785 -6.33323 22.1015 -9.71651 11.4294
279 93 2 7.32758 2.77174 -4.39014 10.24 -1.59226 1.15296
210 70 2 3.45635 4.59788 -8.29049 -1.42145 1.10842 -4.92956
208 70 1 4.21203 5.2968 -8.36931 -8.57736 -3.2506 -2.96214
443 148 2 4.01437 2.91802 -5.84537 -1.98471 -1.55729 -4.1568
442 148 1 4.38237 3.85331 -5.64551 17.3743 -7.94113 8.98551
444 148 2 5.40658 3.75521 -5.6031 -13.8542 8.66797 -0.558217
621 207 2 2.43517 0.558484 -8.50313 -0.51558 5.8841 4.26148
619 207 1 1.65724 0.227233 -7.93331 -3.60747 -11.317 -13.4226
539 180 2 1.48583 3.01506 -8.18194 8.94827 2.18452 3.56444
540 180 2 2.7043 2.32115 -7.28715 1.48945 -6.69913 2.07184
538 180 1 2.47225 3.12004 -7.86852 -12.7606 4.64656 -8.14596
341 114 2 4.00339 7.26221 -9.47069 7.56686 7.18423 3.36559
225 75 2 4.87425 2.43173 -9.29316 4.05182 5.7448 -10.8461
231 77 2 0.829953 4.6544 -4.28608 -2.69823 0.898836 -3.25056
85 29 1 2.66615 4.03112 -3.34727 -5.75672 -7.78674 -3.28646
86 29 2 3.24601 4.08389 -4.19828 -0.149982 -3.78085 -1.27999
87 29 2 2.16872 3.10695 -3.29228 8.82018 11.2827 -0.311781
32 11 2 1.83053 0.943736 -3.89252 -8.52605 -1.31016 17.0007
490 164 1 -3.41248 -2.74378 -2.52031 -14.9546 6.7087 25.0536
492 164 2 -4.38609 -2.73289 -2.17072 6.46051 -3.38112 -7.11294
491 164 2 -2.9232 -2.15117 -1.82436 4.96523 -3.97203 -5.97636
551 184 2 -6.77995 -2.37816 -1.40671 -1.07159 8.33625 0.392584
349 117 1 -2.93771 -5.29415 -1.58827 10.9976 12.5605 -2.92331
351 117 2 -2.04694 -5.62662 -1.94262 0.370193 -13.9328 -3.11338
550 184 1 -6.24963 -3.23506 -1.58159 4.49653 13.9233 -3.29253
552 184 2 -6.08201 -3.63786 -0.645635 3.81967 -10.1612 -2.02261
350 117 2 -2.97298 -4.37566 -2.05371 -15.3158 5.30495 4.29135
523 175 1 -5.60045 -4.49665 0.745304 7.8232 3.14831 8.00249
43 15 1 -5.42495 -6.84816 -1.28212 16.1392 -15.948 8.41846
91 31 1 -3.35104 -0.776695 2.21681 15.9533 -22.8804 -12.3458
174 58 2 -5.5252 -5.7809 -3.02007 1.26193 5.13684 -2.19019
92 31 2 -3.97833 -0.77065 3.01943 -15.3415 2.34512 -5.81994
45 15 2 -4.48662 -6.60473 -0.947647 -4.84013 17.4588 -10.0885
524 175 2 -4.68983 -4.23311 1.12286 -2.19878 -0.466955 -4.66731
20 7 2 -7.2222 -5.68174 -1.31642 4.79633 -1.27655 -3.68975
347 116 2 -2.8851 -1.36198 0.764403 7.40223 7.88656 -11.2071
567 189 2 -2.38407 -5.57484 -0.118547 5.79184 -0.726492 2.78577
566 189 2 -1.03908 -5.62588 0.954393 7.76124 7.62642 -7.47309
239 80 2 -0.00334273 -0.651522 -0.824504 -8.17511 -4.72329 -4.83598
546 182 2 -6.98632 -3.34174 2.0212 2.66702 -15.9501 -4.92101
544 182 1 -7.38635 -2.41467 2.13262 3.16395 22.3429 1.76595
194 65 2 -0.338301 -2.13718 -3.20822 0.979078 -0.591824 -15.73
193 65 1 -0.156869 -2.05542 -2.21102 -3.22422 -2.60851 4.57247
545 182 2 -7.3497 -1.87481 1.25795 1.55831 -4.65745 0.0452493
348 116 2 -2.27628 -0.291256 -0.372932 6.12952 2.06809 3.04711
565 189 1 -1.94871 -6.02418 0.710711 -18.747 -7.06043 14.6242
346 116 1 -2.43064 -1.28175 -0.171894 -12.2356 -16.2016 -4.74756
525 175 2 -5.71318 -5.50257 0.896372 -6.03287 -0.097389 -2.56971
93 31 2 -2.41322 -0.823941 2.60836 16.7709 -4.90228 -6.42358
115 39 1 -7.36355 -5.14254 3.15018 6.91602 -4.80928 8.15579
520 174 1 -0.692259 -0.955731 3.19722 -20.8336 -9.68927 8.5764
522 174 2 -0.104157 -0.11461 2.97071 0.959604 -8.6336 7.49398
233 78 2 2.76469 -2.5499 -3.11887 -2.56435 0.00504174 6.5246
337 113 1 5.94998 -2.96872 -3.23533 27.1111 10.141 9.30013
195 65 2 0.561953 -2.72212 -1.95199 2.42893 1.21993 -1.57202
313 105 1 7.12855 -0.801261 -0.769411 -14.228 12.8429 2.75296
339 113 2 6.40285 -3.26954 -2.36214 -13.5987 -7.68294 -4.98263
594 198 2 4.91727 -4.70724 -1.75028 1.87786 -18.3339 -10.4309
592 198 1 3.9193 -4.76599 -1.98897 -26.0567 9.37846 12.8124
593 198 2 3.53322 -5.60245 -2.44787 20.8865 5.02877 5.50465
315 105 2 6.17614 -0.409522 -0.775023 6.59613 -16.3782 1.43702
238 80 1 0.870938 -0.312064 -0.427822 20.1666 -2.14469 10.1497
240 80 2 1.48788 -1.1369 -0.537379 1.09417 8.6255 -1.46276
19 7 1 6.63174 -5.31961 -1.30999 -0.24691 0.544373 0.534446
21 7 2 6.32954 -5.43651 -0.32918 -6.80853 -5.73188 0.780285
248 83 2 5.85061 -2.61426 2.34387 -4.95125 9.57472 -2.97057
157 53 1 0.549123 -4.90733 0.431161 0.574217 -8.10665 -9.46823
158 53 2 1.32653 -4.82842 1.09971 3.26153 7.15994 5.86297
159 53 2 0.714259 -4.2493 -0.326211 -2.06745 0.24577 3.12693
247 83 1 4.81965 -2.48564 2.30837 -6.71147 -18.3138 -2.1582
373 125 1 2.53438 -2.55239 -0.720953 1.7726 -23.0307 15.8896
374 125 2 2.41437 -2.65246 0.291075 -3.76351 7.43716 1.56692
375 125 2 3.08561 -3.41483 -0.8828 -1.01024 9.85541 -19.1822
419 140 2 2.40495 -3.82486 2.90923 -2.21605 -6.95693 -3.57833
418 140 1 2.62265 -3.95015 1.9037 8.35161 8.65666 3.48935
420 140 2 3.53639 -3.46126 1.83238 -3.13188 -1.38929 5.11429
249 83 2 4.53248 -1.49982 2.18226 5.62364 5.91365 1.34474
308 103 2 6.35501 -6.14892 -3.06642 -8.0735 -10.0755 2.54853
257 86 2 6.36027 -6.06641 1.88963 1.05127 0.923801 -3.43189
258 86 2 4.96529 -5.32754 1.41987 0.38984 -6.59004 -2.06587
256 86 1 5.68476 -5.98628 1.11726 -1.81939 9.26031 4.66622
429 143 2 1.07604 -6.75791 -0.168059 3.68903 -5.95679 7.19448
95 32 2 -1.74969 0.914015 -2.40893 3.82349 -5.07854 9.31043
613 205 1 -6.61323 7.00875 1.89129 6.54813 14.929 3.40745
614 205 2 -7.21528 6.87544 2.74661 4.90364 -15.2996 -19.0176
615 205 2 -6.8653 6.3773 1.11938 -2.91669 3.77777 7.18265
44 15 2 -5.39494 6.95191 -1.09822 -15.7517 3.30939 -5.73699
314 105 2 -7.24524 0.119634 -0.629511 12.8143 -6.40521 5.37548
37 13 1 -4.23139 1.32098 0.27363 7.9573 -8.51338 15.0149
360 120 2 -6.25774 1.62806 0.605641 0.874815 -5.84459 -3.83988
312 104 2 -4.11147 5.33612 -2.32735 -3.92097 -13.9544 -11.7048
310 104 1 -4.01554 4.99743 -1.36369 9.48775 18.416 20.4665
311 104 2 -4.27922 4.02689 -1.20846 -5.10612 -2.85083 -8.06712
409 137 1 -7.22516 3.61862 -1.39112 9.70715 -27.6422 -11.52
410 137 2 -7.36687 4.61039 -1.11996 -3.70474 1.90393 3.10692
151 51 1 -1.54461 3.43939 -1.82439 9.2995 -4.23535 1.79456
152 51 2 -0.697164 3.45707 -2.39877 -3.44352 4.68639 -2.68713
153 51 2 -1.85108 4.39537 -1.62294 0.12367 -3.73127 -1.45722
278 93 2 -7.12642 2.64895 -2.78539 8.05054 5.89343 0.135307
104 35 2 -2.21909 7.02541 0.350529 14.4468 4.18618 -2.02688
411 137 2 -7.2833 3.00045 -0.564469 -2.50591 3.20025 -8.63034
103 35 1 -1.84066 6.24239 -0.207351 -11.5698 -9.40568 -0.269485
105 35 2 -2.67693 5.79426 -0.619159 1.91442 -1.26237 0.96639
358 120 1 -7.28408 1.65292 0.552779 16.2679 15.9963 9.88874
39 13 2 -3.23993 1.38591 0.00211944 -8.02577 3.4637 -1.00008
397 133 1 -1.4076 1.22856 -0.286239 -26.2317 9.42349 -11.3497
398 133 2 -1.43225 2.14075 -0.807577 9.54085 -6.91579 11.3659
399 133 2 -0.563553 1.01374 0.251368 6.43997 6.67299 -6.53222
38 13 2 -4.23014 0.704776 1.10648 -3.80283 6.26258 -8.49124
325 109 1 -0.271238 4.73515 2.02631 -4.95456 3.84406 -7.84477
326 109 2 -0.856842 5.06687 1.26491 -7.78093 2.89622 -2.59283
52 18 1 -5.16722 0.6809 3.21846 -15.5215 21.3204 15.3676
510 170 2 3.38309 6.76711 -1.21149 -5.4125 -8.53666 0.395479
134 45 2 5.3958 0.0359446 -2.38661 -3.89291 0.590866 -4.67522
33 11 2 0.915413 0.961146 -2.43187 9.34365 -3.0302 -4.77537
31 11 1 1.58529 1.46596 -3.01827 0.783772 3.284 -15.556
135 45 2 6.53285 1.15761 -2.81198 -3.99538 3.90392 1.25072
359 120 2 7.24217 2.40305 1.20476 -9.32994 -9.43888 -5.16547
428 143 2 0.0533221 6.85471 -0.447059 -1.7822 -9.37653 4.63078
508 170 1 3.96682 6.5918 -2.02496 13.1438 15.942 -10.2817
386 129 2 6.45338 6.70909 -0.308804 -1.66352 -2.09051 -2.07003
385 129 1 6.97149 5.82723 -0.348915 -4.88113 10.0074 21.5899
509 170 2 3.73381 5.78148 -2.59285 -10.2748 -7.26539 6.53827
401 134 2 2.00236 5.68294 0.756427 6.96348 -3.71235 -4.12766
402 134 2 2.37294 3.98886 0.817262 2.42115 14.0942 2.30145
400 134 1 2.51082 4.92257 1.24051 -15.2884 -6.01314 -1.89484
250 84 1 2.53656 1.71667 0.646761 3.05277 -4.97429 -2.38138
251 84 2 3.1832 2.18332 -0.0303949 -9.24829 -6.4175 -0.550921
252 84 2 2.13789 0.848711 0.232444 0.425711 13.46 -1.93843
387 129 2 6.56172 5.15198 0.330752 -2.57139 7.45651 -4.09533
309 103 2 5.24662 7.34721 -3.16551 7.84274 6.5911 6.69549
133 45 1 5.65103 1.01584 -2.29735 4.27925 -4.57103 -6.83605
176 59 2 5.19614 3.64495 0.447174 -12.6043 -4.18039 -1.44542
262 88 1 4.04285 2.91398 -1.27839 6.52681 -2.63504 13.1003
263 88 2 3.59263 3.46531 -2.01631 -3.80325 0.933126 -3.872
264 88 2 4.69353 2.23531 -1.72309 -1.10856 0.766505 1.98951
175 59 1 5.74432 3.84836 1.27759 38.0047 -7.51438 -25.1362
177 59 2 5.27151 3.62223 2.1662 -8.6591 13.7438 -0.576097
318 106 2 3.7885 0.820355 1.62964 -11.2847 12.3737 5.7564
316 106 1 4.10087 0.0755331 2.25054 13.6166 -25.1526 9.01952
427 143 1 1.01662 7.0242 -0.140635 -3.0017 9.58692 -5.94643
327 109 2 0.674067 5.03884 1.80117 5.57493 -2.66107 6.40312
506 169 2 1.21891 1.22275 2.18584 10.0016 6.64459 -9.40883
507 169 2 0.0886086 2.02968 3.14319 13.0062 -1.30158 5.89302
505 169 1 0.648933 1.16931 3.02109 -4.9065 10.0574 -4.07204
570 190 2 3.46257 4.71436 2.81762 0.729224 5.70921 -14.7923
317 106 2 3.87638 0.11986 3.25198 -3.80441 13.9706 -11.9717
356 119 2 -0.868278 -3.746 5.04666 1.58785 -2.68276 1.77164
357 119 2 -0.548442 -2.80203 3.7306 9.30053 -1.32165 -3.65776
355 119 1 -0.266568 -3.65361 4.23584 -13.1001 4.94126 0.541669
437 146 2 -0.108096 -1.42719 7.49113 -0.473915 -8.10353 -3.20731
438 146 2 -0.188302 -0.76945 6.01539 -8.15766 2.36957 -18.1173
116 39 2 -6.73597 -5.93973 3.30682 -4.94479 4.01377 -3.29172
574 192 1 -4.45297 -4.73772 6.51006 -2.55375 16.797 -2.05022
575 192 2 -4.10192 -5.47604 5.898 -2.15878 -11.8258 -1.73026
576 192 2 -4.83668 -4.00426 5.90439 2.81248 -3.26837 5.76365
165 55 2 -5.59967 -4.41116 7.94592 -3.85466 -4.69151 -1.6043
333 111 2 -2.59705 -5.39096 9.85724 -2.11547 6.542 -12.9232
213 71 2 -5.7176 -1.18487 4.51233 -18.6689 -2.50019 -3.33515
331 111 1 -2.76416 -4.59302 9.19813 5.06993 3.51179 4.97219
332 111 2 -3.06945 -4.90077 8.27488 -5.12015 -7.64524 2.77812
211 71 1 -5.14983 -2.01155 4.3322 35.208 -14.3347 11.6366
212 71 2 -5.35093 -2.50548 3.46716 -9.85089 4.23909 -1.82566
163 55 1 -6.32878 -4.20357 8.64197 4.54764 4.44625 -1.64324
222 74 2 -3.50398 -6.50468 3.91686 11.9586 -22.6567 -1.35909
220 74 1 -3.96749 -6.88991 4.73728 -27.5028 30.3141 18.4071
560 187 2 -7.00015 -1.87725 8.43814 -5.54179 1.15237 2.79446
559 187 1 -6.51041 -1.22569 9.06177 -7.57481 1.64001 -13.1733
561 187 2 -5.69536 -1.73726 9.38255 11.4005 3.10083 7.37264
13 5 1 -1.28477 -2.43713 8.18406 -4.59064 -8.26829 4.01104
14 5 2 -2.20327 -2.08803 8.48048 4.60508 10.3146 0.701266
15 5 2 -1.30667 -3.40913 8.51815 2.00378 3.27857 -1.87324
573 191 2 -1.20527 -7.11794 9.5658 1.63487 2.55677 5.65106
164 55 2 -7.24971 -4.07441 8.22533 1.69574 -0.584208 -5.24296
607 203 1 -7.35536 -0.556311 4.28235 -14.5835 -2.17545 -5.33018
521 174 2 -1.29218 -0.685751 3.99091 4.99209 1.27204 -4.09627
62 21 2 -3.59073 -0.501156 5.06075 3.41109 -1.42518 6.42098
126 42 2 -3.52839 -2.77178 9.13422 -4.23899 -12.8226 8.33153
124 42 1 -3.63668 -1.82396 9.49552 3.15662 1.33603 -0.548402
579 193 2 1.31417 -4.11924 4.54649 -9.79272 9.81267 5.59204
513 171 2 5.49457 -5.78334 5.47468 -2.84377 3.30002 1.5141
577 193 1 2.32329 -4.00981 4.71135 24.232 -0.908443 -1.01916
436 146 1 0.468287 -1.09157 6.69475 1.17883 1.15807 19.6684
578 193 2 2.56469 -3.5748 5.61511 -11.0017 -2.98866 -5.42465
406 136 1 3.26164 -6.70745 5.4549 21.1811 0.697771 7.64742
407 136 2 2.63758 -6.26182 4.78511 -5.98153 -3.26592 4.01622
512 171 2 4.96856 -4.38679 4.74401 4.37749 -5.58515 8.42813
511 171 1 5.72568 -4.7968 5.31229 -5.1178 6.42108 -8.12065
117 39 2 6.97902 -4.88998 4.03528 -1.6963 -2.60315 -1.83023
536 179 2 6.21503 -3.24905 6.63177 7.27747 5.8929 -10.3736
537 179 2 7.19437 -1.7938 6.54385 -7.65656 -8.69401 -8.03122
535 179 1 6.74496 -2.51115 7.12277 -1.10126 -0.999828 4.56411
534 178 2 2.0564 -3.10865 8.44576 14.7396 15.0253 -15.5714
532 178 1 2.46549 -2.63534 7.6031 -17.4311 -18.4293 17.808
533 178 2 1.71302 -1.99424 7.29612 7.68666 2.80256 -8.41757
366 122 2 5.42908 -2.38266 8.22512 -4.56845 -0.923028 -1.38456
608 203 2 7.20543 -1.23591 3.54844 7.35449 -3.29719 -1.64313
609 203 2 6.56508 -0.0852218 4.46373 1.67848 12.5244 5.62419
364 122 1 4.88971 -2.49255 9.09454 5.56891 1.79771 24.4853
365 122 2 3.8738 -2.41716 8.98945 0.124981 0.125356 -15.8775
203 68 2 2.62261 -6.62344 9.25411 -2.49022 -4.87471 4.32909
202 68 1 2.38675 -6.88854 8.28557 13.8319 4.02921 13.3295
204 68 2 3.10764 -6.41972 7.73793 -6.85782 -0.396049 -11.5507
595 199 1 -6.43557 3.21429 4.42769 1.46056 -0.0382771 1.47998
596 199 2 -6.58969 4.19549 4.65786 7.70213 3.45286 -3.26168
289 97 1 -1.66636 1.90872 6.56747 -20.8825 -12.9354 -6.70578
221 74 2 -3.76216 7.0319 5.20776 19.4283 -11.0938 -16.6181
291 97 2 -2.39394 1.97586 7.29494 6.29088 2.71669 5.86048
440 147 2 -6.56299 0.453982 8.62098 7.07407 4.78782 6.88598
372 124 2 -0.433221 6.74761 5.03789 -4.17123 -0.314981 1.82454
53 18 2 -5.96923 0.127038 3.54691 -8.25194 8.93818 -2.01651
290 97 2 -2.00656 1.17073 5.92354 4.82984 11.1024 2.0478
439 147 1 -6.27454 1.45328 8.61012 3.15297 -14.7816 -0.534014
61 21 1 -2.79803 0.0427663 4.71104 -1.45965 0.868544 1.36207
266 89 2 -3.40582 4.31476 5.27666 -0.0732087 4.32155 2.05509
457 153 1 -3.25443 2.13978 8.94121 -12.7892 23.5098 7.65309
590 197 2 -0.425627 4.0548 3.82082 21.6623 7.18703 2.75408
384 128 2 -5.68474 6.30674 5.5677 -7.78327 -3.24051 14.4606
382 128 1 -6.41645 5.74847 6.03654 -1.17609 -4.64036 -10.7665
54 18 2 -5.36969 1.67222 3.40594 -2.76027 -1.74766 0.861814
377 126 2 -2.04775 4.75446 8.3194 10.8862 -10.9295 6.55571
265 89 1 -3.3129 5.24361 5.69023 4.85966 2.98036 7.45824
267 89 2 -2.79612 5.18641 6.57815 -2.92672 -0.711744 -11.3711
63 21 2 -3.1423 0.425133 3.81469 2.84616 6.76181 9.32625
597 199 2 -7.24986 2.72519 4.78502 -5.90123 -8.81673 -4.77849
376 126 1 -1.10542 4.65001 7.90094 -4.38749 2.43079 -6.49153
378 126 2 -0.850655 3.69806 7.60775 -9.8837 2.24091 2.87457
383 128 2 -6.82408 6.18086 6.88167 0.944498 6.19262 -5.85187
441 147 2 -5.26676 1.44831 8.78186 2.5525 2.18094 1.59831
647 216 2 -7.15763 2.25038 7.67072 -3.38855 5.52715 -0.489704
648 216 2 -7.09998 3.57314 6.65284 -1.93846 1.1585 4.17329
459 153 2 -2.62824 2.14998 9.73442 19.3961 -25.6323 3.74191