ITEM: TIMESTEP
21000
ITEM: NUMBER OF ATOMS
648
ITEM: BOX BOUNDS pp pp pp
-7.3398673036104576e+00 7.3398673036104576e+00
-7.3398673036104576e+00 7.3398673036104576e+00
-1.6310816230245933e+01 1.6310816230245933e+01
ITEM: ATOMS id mol type x y z fx fy fz
31 11 1 -0.825596 -2.89312 -11.5269 -3.6901 -0.855795 14.2374
139 47 1 -6.72736 -3.65737 -14.6908 -12.2257 7.41826 6.16604
141 47 2 -6.8109 -2.65148 -14.4623 0.84588 -11.2875 -3.05256
554 185 2 -0.956793 -7.2308 -11.1241 -7.53723 22.6018 -8.84986
540 180 2 -1.53087 -5.65827 -13.2075 -19.0536 -10.9403 -2.91696
538 180 1 -2.38448 -6.10226 -13.6087 28.8399 14.4608 12.1957
32 11 2 -0.986396 -2.20853 -10.7954 0.327616 0.714496 0.32736
582 194 2 -0.704075 -2.38643 -15.1879 -3.23781 2.34054 4.82671
581 194 2 -1.64267 -1.15856 -14.6054 3.64891 -0.0785081 -1.03281
33 11 2 -0.989356 -2.47594 -12.428 0.560054 7.70079 -19.2233
539 180 2 -3.14828 -5.44837 -13.4101 -13.6135 3.74097 7.56315
309 103 2 -0.593204 -4.42925 -11.345 5.99381 -15.7693 -1.76147
7 3 1 -4.54026 -4.4617 -13.1564 0.930379 -9.65933 -20.5037
8 3 2 -4.55064 -3.9706 -12.2841 -0.154277 11.253 19.1953
171 57 2 -3.53829 -0.350024 -10.4943 10.6565 4.10827 14.9362
580 194 1 -0.886748 -1.81555 -14.3588 -3.44933 -2.85868 -2.94431
9 3 2 -5.35215 -4.11852 -13.6923 0.336942 -4.0802 -5.49005
244 82 1 -5.32967 -2.58411 -11.0597 5.31404 6.94189 5.21415
245 82 2 -5.51752 -1.65222 -10.6573 -2.08747 -10.7211 -1.18984
307 103 1 -0.298681 -5.44123 -11.4671 6.81368 -0.869747 -20.4216
323 108 2 -6.1248 -1.68964 -12.4721 11.1076 -14.209 15.7472
322 108 1 -6.54296 -1.07577 -13.1522 -27.6179 15.6383 -14.8348
246 82 2 -4.56712 -3.03566 -10.5307 -1.20939 1.89518 -3.82304
144 48 2 -6.94894 -6.1961 -16.2836 2.73093 4.31501 -2.59185
76 26 1 -3.37795 -6.14672 -16.1514 -4.15436 -6.38211 -12.3305
77 26 2 -3.46117 -5.81187 -15.1992 12.9498 0.584991 16.081
83 28 2 -1.55949 -7.07828 -14.5344 7.07072 -0.931776 -1.08282
140 47 2 7.04142 -4.07391 -14.9604 12.3487 5.30851 -0.557024
492 164 2 6.15724 -3.72606 -11.7266 10.0033 10.8754 -17.1871
197 66 2 4.82266 -4.82303 -14.2988 3.44624 -19.5304 12.9662
490 164 1 5.31091 -3.18861 -11.5739 8.9203 -29.7105 19.6004
491 164 2 5.15663 -3.58873 -10.6375 -20.0203 18.7297 2.71408
119 40 2 2.42755 -5.41338 -13.4054 -25.9586 -5.89041 -18.8315
118 40 1 1.44443 -5.70772 -13.6129 18.1501 6.9962 25.7638
120 40 2 1.24389 -6.00447 -14.5837 9.76772 0.590619 -1.57071
258 86 2 2.66356 -3.75665 -11.6925 -6.25884 6.17133 2.28799
257 86 2 3.03201 -2.29377 -12.4905 4.02605 -3.39095 1.22889
256 86 1 2.30701 -2.90279 -12.1288 3.78865 0.891505 -1.83817
612 204 2 0.970762 -1.11622 -13.4106 -6.08136 2.83109 3.61673
610 204 1 1.1912 -0.140356 -13.1775 11.8143 -1.72366 -16.8693
308 103 2 0.316522 -5.46855 -12.3154 -5.40793 3.15334 13.8731
196 66 1 4.68453 -5.21001 -13.3302 -9.81302 6.80305 -15.9692
384 128 2 3.18521 -1.00213 -10.2759 -9.18467 -18.5808 -0.236521
146 49 2 4.87479 -6.89328 -13.004 3.0462 3.99625 -8.396
198 66 2 4.70933 -4.40313 -12.7096 2.13653 7.33493 7.51882
226 76 1 1.16362 -6.87159 -16.0186 68.1769 1.87477 -20.7987
10 4 1 2.13696 -5.13096 -10.118 8.81004 17.7799 -10.4528
11 4 2 1.17633 -5.45205 -10.2621 -6.3733 -1.36704 -1.57319
324 108 2 7.22041 -0.77049 -12.7761 17.0387 -5.34269 -5.35231
280 94 1 7.2824 -0.323249 -10.5212 -12.3692 0.121826 -0.83136
382 128 1 3.70108 -0.250572 -9.85125 10.3017 11.6388 -4.44144
12 4 2 2.825 -5.9004 -10.0129 -5.441 -4.30358 12.0932
160 54 1 5.48459 -4.76139 -15.8555 7.36108 21.7321 10.2682
161 54 2 5.32238 -3.76106 -16.141 -3.85345 -17.9707 -5.56613
43 15 1 -5.59139 5.46889 -12.662 15.3708 -1.22517 -0.98088
621 207 2 -0.624702 1.52301 -11.2118 -7.86712 6.95612 0.892717
619 207 1 -0.257202 0.585206 -11.0956 6.71415 -6.28942 2.60798
44 15 2 -6.01086 6.28361 -12.2648 3.026 18.8567 7.52259
395 132 2 -3.44885 6.79512 -16.0489 0.254496 -15.8925 15.6914
555 185 2 -2.16974 6.24095 -11.0632 1.2565 8.16454 0.902995
553 185 1 -1.34106 6.65415 -10.628 -9.77179 -14.4535 -13.8929
207 69 2 -7.19384 3.41965 -15.0116 -13.8009 16.3714 12.8994
641 214 2 -2.77721 4.83896 -14.324 -3.22667 0.906376 -4.06917
642 214 2 -3.92474 4.75042 -13.2046 5.48037 -4.03158 1.70213
640 214 1 -3.00347 4.34425 -13.4582 -6.65564 7.63248 8.53489
201 67 2 -5.55613 0.268965 -13.6291 6.81288 6.2971 -7.88043
583 195 1 -0.131738 3.84752 -12.0548 7.15498 15.3249 -5.93586
199 67 1 -4.90525 0.984433 -14.0197 -3.22339 -2.19581 1.52157
200 67 2 -5.44561 1.77884 -14.4339 4.09294 -9.48841 5.23158
522 174 2 -3.27377 1.45883 -12.0191 7.15815 38.869 0.850409
520 174 1 -2.98215 2.3697 -11.5855 -6.49396 -44.4975 15.0836
521 174 2 -3.03483 3.20621 -12.1624 -1.70876 4.54424 -22.391
294 98 2 -1.33691 1.23154 -15.078 1.71365 -7.06898 -1.06773
585 195 2 -0.857945 3.87406 -12.7696 -7.87173 -6.01182 0.130733
205 69 1 -6.41425 2.82821 -15.2345 9.23195 -12.2868 -10.4284
624 208 2 -3.96617 2.77094 -10.2212 -9.24075 -2.58183 8.55819
45 15 2 -6.36918 4.88005 -12.8546 -14.6417 -21.6171 -9.25378
59 20 2 -3.4872 0.470303 -15.0064 12.0517 -5.39273 1.06911
65 22 2 -4.46476 3.67496 -16.1713 6.77439 -7.45573 -13.3434
394 132 1 -3.68044 5.84906 -15.659 -6.6787 28.3471 -22.0635
396 132 2 -4.69767 5.82786 -15.8748 7.99291 -2.8754 6.34331
58 20 1 -2.66057 0.0793663 -15.5148 -19.172 13.1153 9.36788
206 69 2 -6.73733 2.26002 -16.0235 3.91172 1.0555 0.902217
292 98 1 -0.425215 1.70689 -15.1361 1.7548 10.2073 2.19558
626 209 2 -0.704441 3.37391 -15.8503 -1.42246 -7.2986 -0.412241
82 28 1 -0.941586 7.0372 -15.163 -47.8962 -23.0693 27.8327
84 28 2 -1.58314 6.45555 -15.6806 -3.67111 -12.2599 -5.60989
147 49 2 4.27775 6.52192 -12.1285 2.9459 -5.24122 -3.5526
611 204 2 0.677578 0.126596 -12.3313 -11.6629 -1.9583 9.10317
145 49 1 4.8507 6.75772 -12.9424 2.15915 -1.01951 7.92643
282 94 2 6.56407 0.0499637 -11.1749 7.1645 -5.02201 9.70007
482 161 2 1.44452 6.76674 -11.5865 1.50386 -8.96111 0.129223
481 161 1 2.18601 6.37118 -12.1662 -18.1223 1.19301 21.4561
584 195 2 0.133556 4.82834 -11.9067 -2.77082 -6.73911 -0.479919
483 161 2 2.59828 7.20278 -12.5436 8.56133 8.6681 -17.7447
471 157 2 5.90569 5.53444 -13.8797 -8.69701 9.02368 4.01507
469 157 1 6.18184 4.59146 -14.1608 3.89677 -10.914 -1.71622
620 207 2 0.383124 0.540752 -10.2916 -2.51918 4.16955 2.56512
173 58 2 6.15142 4.82511 -15.7045 -1.96376 3.5099 -0.401265
423 141 2 4.66484 0.77496 -12.9791 5.85018 -4.15627 11.5058
421 141 1 5.29336 0.692593 -12.1486 -4.2228 24.793 -5.78876
383 128 2 4.19559 0.136856 -10.663 7.85098 3.2798 0.421055
456 152 2 2.32005 0.756975 -13.8836 3.06141 -4.74264 6.03327
454 152 1 3.20332 1.25225 -14.1152 8.21849 12.3893 -6.79278
503 168 2 3.99902 0.969795 -15.7754 6.15879 -6.02951 -12.7722
293 98 2 0.133901 1.55297 -14.2951 -3.8197 -6.66261 -2.01022
455 152 2 3.03738 2.27223 -13.9979 2.78517 -3.14974 -2.73769
335 112 2 1.95016 4.08025 -13.2266 -8.10438 2.78787 3.27572
195 65 2 5.78477 4.0791 -11.3079 -4.07114 -4.30082 -1.15342
194 65 2 7.28081 3.35733 -11.2336 -0.578848 -3.47271 1.96222
193 65 1 6.52669 3.61738 -11.8764 12.7416 -9.99067 10.4998
334 112 1 2.78437 3.99852 -13.7887 11.4441 -3.69203 3.7941
422 141 2 5.64495 1.65616 -11.9714 -3.78821 -14.6497 -4.9811
336 112 2 3.36847 4.81759 -13.5763 -4.97423 -6.15688 -6.25825
470 157 2 6.19383 4.03688 -13.2561 4.48036 10.5382 -15.059
129 43 2 3.50192 4.34893 -10.3219 -7.14235 0.155113 -0.989477
127 43 1 4.49973 4.18557 -10.4157 -4.22794 6.87191 5.00641
639 213 2 0.645328 3.62379 -10.6726 1.5945 8.43206 -0.197673
637 213 1 1.23001 3.64199 -9.81452 -4.31833 -20.4664 -5.86757
128 43 2 4.74761 3.36839 -9.84867 -3.12755 -3.07194 6.35651
228 76 2 2.03915 7.26925 -16.0573 -0.0457706 6.19906 -6.05071
227 76 2 0.485851 7.11904 -15.6415 -18.3033 10.3558 3.20529
123 41 2 -3.51086 -4.90208 -9.17862 0.381494 -8.22876 -4.83391
121 41 1 -3.11658 -4.12777 -9.71033 -14.9406 6.34762 11.0861
122 41 2 -2.57672 -3.56528 -9.05271 9.78851 2.61551 -3.23998
594 198 2 -1.66575 -2.66899 -6.61269 4.44089 7.15377 -29.497
450 150 2 -5.62915 -6.13377 -8.02921 20.296 5.39472 11.9271
448 150 1 -4.58726 -6.18221 -7.88761 -7.56413 -0.617054 -21.9353
449 150 2 -4.35175 -5.68322 -7.02091 -6.57164 -0.6606 6.88044
549 183 2 -4.83788 -3.94049 -5.87778 9.95342 9.02685 -1.66378
548 183 2 -5.63356 -5.1554 -5.37651 -13.1443 -12.798 7.5442
547 183 1 -4.67537 -4.89513 -5.57135 4.69914 11.7888 1.80967
601 201 1 -7.03111 -5.27708 -7.41024 -21.1693 15.4817 -15.3926
593 198 2 -1.6682 -1.577 -7.97262 3.79137 -9.99769 10.5409
365 122 2 -1.86861 -1.0068 -4.08298 -5.63465 4.36983 -15.0433
364 122 1 -2.07529 -0.0664028 -4.42297 -6.63326 6.54957 -4.04432
366 122 2 -2.77193 -0.00191814 -5.19796 7.28106 -12.0931 15.9664
592 198 1 -1.47165 -2.53463 -7.64987 -12.3479 -1.47523 19.2334
14 5 2 -2.70125 -4.12165 -5.25963 -3.15459 -1.59857 2.21391
270 90 2 -4.27461 -2.05425 -8.49119 -6.26122 -8.76819 -3.5535
268 90 1 -5.01525 -2.44631 -7.88306 2.69306 19.5151 17.0129
269 90 2 -5.37269 -3.374 -8.08131 4.88947 -3.95565 -11.5751
169 57 1 -3.32903 -0.725916 -9.56143 -11.0801 -18.6418 -3.3502
170 57 2 -2.65629 -0.192031 -8.98949 -1.72801 15.4882 -6.8942
277 93 1 -7.05661 -5.14448 -3.72709 5.4528 -9.3816 -35.7189
278 93 2 -7.26958 -4.18999 -4.03567 -6.3646 4.88322 14.7142
363 121 2 -0.593897 -4.76683 -7.53194 13.2064 18.7724 -8.04906
300 100 2 -0.903518 -6.82701 -7.16145 0.593671 -2.88612 1.40858
87 29 2 -4.34012 -6.35478 -4.44921 4.31855 -14.0523 1.25972
105 35 2 -5.8288 -0.214072 -4.87 -11.3055 18.3699 -0.761476
92 31 2 -7.21085 -6.73956 -4.3631 -2.2775 15.2997 0.486653
570 190 2 -4.73935 -1.09642 -6.65374 2.38266 -19.0595 6.07462
15 5 2 -2.21321 -3.02658 -4.11682 2.17092 -11.0815 -5.76891
13 5 1 -2.21362 -3.23795 -5.11936 0.185996 6.77515 4.388
568 190 1 -4.50105 -0.422306 -5.9223 -2.18362 6.91673 -27.8903
463 155 1 4.10122 -3.70137 -8.90145 -14.984 4.51208 -7.73564
465 155 2 3.23717 -4.04478 -9.38756 15.4346 -1.09922 9.30688
602 201 2 6.75351 -5.50544 -6.98243 2.54424 -12.4454 7.37696
507 169 2 6.0402 -2.49764 -8.49613 -20.8087 3.14571 -15.9265
505 169 1 6.64925 -2.82591 -7.78149 20.9622 -1.02338 6.28749
506 169 2 7.301 -2.08743 -7.53014 1.83603 -1.72574 5.24146
603 201 2 7.33602 -4.41567 -7.90995 8.71434 -5.06303 12.235
385 129 1 3.83302 -6.86593 -9.20938 4.44908 -7.88416 -15.6105
283 95 1 3.94677 -3.7458 -4.79919 9.37574 -3.25945 -9.00824
115 39 1 6.38614 -2.39561 -4.33072 -2.67043 -1.07809 13.3231
464 155 2 3.77977 -3.23587 -8.0267 0.789981 -6.22561 -11.4057
38 13 2 0.804499 -6.02628 -5.66981 8.30615 -2.22745 -13.7198
362 121 2 1.06367 -4.93 -8.13075 1.8885 14.6623 -0.651216
361 121 1 0.154104 -5.3291 -7.93784 -19.6855 -27.0656 11.7768
312 104 2 3.2002 -0.156051 -4.13066 -3.79617 2.97271 1.99903
284 95 2 3.19584 -3.52412 -4.16628 -12.2629 2.36052 17.004
311 104 2 2.34294 -1.51274 -3.75944 -4.83378 5.05269 -19.1032
54 18 2 2.40953 -1.63467 -7.66223 0.240246 -13.0206 14.7181
52 18 1 2.68228 -2.39754 -7.02107 7.08319 11.5344 1.0272
53 18 2 2.76605 -2.02588 -6.0594 -8.65904 8.38352 -6.63029
599 200 2 3.31506 -6.5696 -6.09142 -0.449554 3.78926 -1.40385
117 39 2 5.42849 -2.79939 -4.35813 11.647 4.52029 -0.766796
116 39 2 6.52226 -1.69889 -3.57625 -4.38283 -11.0191 -12.4071
37 13 1 1.73748 -6.23554 -5.31364 -21.6772 0.747132 25.5142
39 13 2 1.56318 -6.11118 -4.30031 10.4607 -0.862491 -10.0857
281 94 2 7.04293 -0.0596918 -9.56634 5.0983 2.72984 -6.68675
285 95 2 3.58249 -3.54078 -5.7229 -0.781523 2.83613 -10.5814
386 129 2 4.42904 -6.3806 -8.54363 0.319152 2.14357 10.2489
310 104 1 2.54176 -0.842883 -4.53478 5.89348 -11.3721 11.0564
598 200 1 4.25271 -6.2143 -6.33987 -7.13615 17.9 13.3015
600 200 2 4.24403 -5.27841 -5.88066 7.86579 -18.1006 -5.53992
180 60 2 -4.09919 7.02702 -8.06739 -1.55554 -13.671 -5.46035
179 60 2 -2.9005 5.96333 -7.75146 -15.0395 -7.94814 -10.0922
236 79 2 -0.178199 6.53028 -9.73369 -8.41749 -11.1764 6.35435
618 206 2 -2.464 1.5589 -7.41683 10.0818 -2.78161 -0.415062
616 206 1 -1.8467 0.886338 -7.91546 13.1813 -3.81934 -0.0529255
617 206 2 -0.832092 1.06662 -7.79198 -21.5307 -0.244175 3.26042
80 27 2 -4.65539 3.03018 -6.6093 23.9089 -6.58072 0.706925
79 27 1 -3.74674 2.58909 -6.85147 -16.4433 -4.49598 8.32901
61 21 1 -2.03961 5.52476 -4.9754 -5.7555 20.7306 14.2459
63 21 2 -2.73703 6.099 -4.46506 3.20054 -9.68467 -10.9738
81 27 2 -3.79908 2.52245 -7.89106 -5.36761 10.4218 -0.274848
98 33 2 -5.28214 5.33608 -8.08167 14.6008 -17.4351 -2.35566
97 33 1 -6.11692 4.72574 -7.94404 -24.1295 6.12377 7.11427
99 33 2 -6.81735 5.42452 -7.71325 -7.28999 0.248592 2.38948
622 208 1 -4.45845 2.74483 -9.30229 24.1346 -7.65793 -11.1379
623 208 2 -5.47178 2.76925 -9.32111 -8.37785 -1.68815 -13.0032
178 60 1 -3.86286 6.00384 -8.13143 23.43 24.9801 13.2818
104 35 2 -6.91889 1.1118 -5.1807 12.3566 -1.11338 2.81415
86 29 2 -5.07276 6.8055 -4.3915 12.7367 11.0864 3.92253
85 29 1 -4.19117 7.32605 -4.20046 -14.3117 -0.155071 -1.42622
133 45 1 -7.02051 2.4799 -6.21135 5.47481 -5.8091 -1.50698
134 45 2 -6.76323 3.38364 -6.60926 -0.0421912 3.36812 -0.448245
103 35 1 -6.62998 0.364687 -4.52301 -1.73967 -12.199 0.0962221
209 70 2 -0.101215 3.37536 -7.5746 -11.6434 1.35423 23.4939
69 23 2 -6.9818 3.19252 -8.68474 0.0315007 -3.87876 -8.26633
210 70 2 -0.761203 3.22654 -5.9099 -9.99546 8.92283 -13.1241
91 31 1 -7.25067 6.92196 -4.41882 4.34071 -24.4643 -4.56918
62 21 2 -1.72262 6.11837 -5.7633 7.07861 -9.66225 -1.93401
299 100 2 -0.199115 6.6301 -7.85181 -13.8293 -11.497 17.1379
298 100 1 -0.831718 6.84187 -7.01867 0.705635 17.0908 -3.988
635 212 2 -0.975758 5.24157 -3.49141 -6.1537 -7.68538 5.33793
67 23 1 -7.27639 2.44801 -9.34279 3.50305 16.6702 7.69682
36 12 2 -1.59119 1.21111 -3.49109 -0.849337 -4.43825 7.10366
569 190 2 -4.59984 0.422423 -6.4942 6.95665 8.57489 15.4802
412 138 1 1.57293 1.0122 -9.00871 3.67744 -11.8873 25.8385
387 129 2 3.857 6.81362 -9.06047 1.15375 -3.31933 4.2221
413 138 2 1.5681 0.653612 -8.02765 -22.9591 16.5357 -2.6019
414 138 2 2.49944 0.618477 -9.21153 4.56781 0.586069 -23.0401
135 45 2 6.80236 2.11956 -6.61296 -5.86573 4.55403 -1.63245
341 114 2 5.22863 6.89029 -6.2446 8.09598 25.3572 -6.1612
208 70 1 0.00789061 3.1046 -6.57515 18.6469 -3.97308 -9.27174
638 213 2 1.25365 2.6248 -9.60477 10.0962 9.49719 11.2248
93 31 2 6.91249 6.58666 -5.26311 7.52748 12.5784 4.10788
21 7 2 1.35941 4.25767 -6.12341 -3.53384 -9.97253 1.92291
235 79 1 0.484407 6.14112 -9.02389 41.8637 -8.08158 -3.11997
237 79 2 0.912846 5.26012 -9.36701 -7.0266 2.57138 4.8376
20 7 2 1.67243 5.84105 -6.19668 12.338 -12.4102 8.71624
19 7 1 2.08141 4.93972 -5.88628 -10.9909 18.0891 -15.2397
342 114 2 5.69327 5.52634 -6.74011 10.0834 -7.05666 -5.49401
340 114 1 6.08015 6.46718 -6.63763 -19.4454 -28.9432 3.96849
68 23 2 6.39516 2.25508 -9.16426 6.27955 0.249746 1.59411
480 160 2 4.89914 3.61664 -5.45094 9.04994 -4.55315 5.80025
164 55 2 4.57998 2.58233 -7.81292 8.71857 0.517357 -5.40607
165 55 2 4.48554 1.17462 -8.68149 -7.59812 -17.6636 -4.50441
163 55 1 4.93192 2.07807 -8.6554 -5.23843 17.5236 11.2587
478 160 1 4.61722 3.73778 -6.43866 -28.0204 4.39443 -14.4337
90 30 2 0.590448 1.49448 -6.18026 10.0461 -12.1374 -5.58806
479 160 2 3.59709 3.96925 -6.38997 17.9754 2.9016 1.40655
89 30 2 1.43441 0.24403 -5.42081 -2.6765 -2.71611 -22.2274
88 30 1 1.08626 0.590359 -6.34789 -2.35016 12.5017 16.557
347 116 2 4.54476 4.28137 -3.79885 8.55929 -7.45682 16.8277
346 116 1 5.28427 3.56584 -3.91344 -19.0517 6.2539 -24.2511
524 175 2 -0.347034 -5.20198 -2.44677 -19.5869 9.37646 -1.65141
563 188 2 -4.05451 -2.09248 0.431931 -17.1178 -2.89229 14.2664
646 216 1 -1.84835 -4.29611 -2.32586 -5.15479 6.14121 13.8564
604 202 1 -4.13106 -4.96482 -1.00801 10.3441 7.947 13.4243
605 202 2 -4.87672 -5.67219 -0.997615 -0.429095 3.31325 -2.62827
606 202 2 -4.37977 -4.30134 -0.260723 -4.95959 -4.01024 -4.07864
279 93 2 -6.96072 -5.34009 -2.71389 -0.285739 11.5605 7.72979
564 188 2 -3.27962 -1.0932 -0.557237 1.3164 8.37845 -2.3201
260 87 2 -2.4051 -6.63461 -0.289571 2.24566 -8.81739 3.98866
607 203 1 -1.43121 -3.27903 1.95606 -12.3726 -3.86434 0.951463
608 203 2 -1.25545 -2.91521 1.02242 6.25551 4.15065 -1.85288
609 203 2 -2.30567 -3.80918 1.92267 -2.32002 1.17808 3.21855
418 140 1 -7.1092 -1.58013 -1.57607 12.6566 -22.9396 8.53199
576 192 2 -6.46124 -6.62369 -0.872436 -3.08888 -5.12265 9.90121
574 192 1 -6.81411 -5.71837 -1.19972 -6.97397 21.3537 10.3364
648 216 2 -1.39407 -3.52111 -1.81279 13.5465 3.36718 -5.94534
562 188 1 -3.86299 -1.10095 0.26836 16.2867 12.8524 -9.77198
331 111 1 -5.10285 -3.24697 1.09404 5.56181 -15.9197 -11.8401
647 216 2 -2.67593 -4.41978 -1.72362 -10.8832 -16.9899 -12.6036
537 179 2 -5.28881 -0.875525 2.7662 7.1797 17.2378 -9.29411
420 140 2 -6.14934 -1.93042 -1.6467 -6.82783 8.95751 -2.18967
411 137 2 -1.10256 -6.25929 3.01331 -4.56855 4.52061 0.918901
333 111 2 -4.7809 -4.0324 1.69417 -4.75379 3.40673 5.79122
332 111 2 -5.90646 -2.75484 1.49619 2.32976 -0.943239 6.8915
249 83 2 -0.850543 -1.42099 -1.40653 7.5921 3.90423 0.559727
247 83 1 -0.6624 -2.36214 -1.0684 7.57754 2.04948 11.5142
212 71 2 -3.96439 -6.12198 2.70793 2.51277 13.0748 -12.421
211 71 1 -3.97174 -5.07897 2.72547 0.840634 -20.7266 13.1067
410 137 2 -0.92616 -4.57398 2.93249 -1.67074 4.81794 -6.16905
535 179 1 -6.09518 -1.37022 3.10581 -4.39102 -17.7947 10.4975
409 137 1 -0.508044 -5.45956 3.22744 10.7956 -12.7106 6.12253
525 175 2 0.468481 -6.64455 -2.26274 0.195402 3.1875 5.40613
229 77 1 1.73069 -2.96978 -3.03173 10.6505 -0.563571 -2.34889
230 77 2 1.57348 -3.94945 -2.80009 -7.38201 -5.96836 -1.67086
447 149 2 3.29782 -5.23133 -1.02418 -6.77489 3.86389 1.91447
445 149 1 4.147 -5.64095 -1.38731 -5.4564 -0.750606 -9.69029
523 175 1 0.507057 -5.70099 -2.66993 25.0151 -8.77398 -8.44473
575 192 2 7.11009 -5.3864 -0.571717 10.8994 -10.3433 -2.25343
501 167 2 4.92769 -4.35782 -0.975643 6.60723 -5.49575 1.09417
499 167 1 5.49134 -3.62979 -0.489291 14.0971 5.47039 24.2097
231 77 2 1.81897 -2.45018 -2.16222 1.76695 1.37284 10.0622
446 149 2 4.01792 -6.64308 -1.26637 5.03034 -6.52377 5.37505
367 123 1 4.47159 -1.28163 -1.21987 -4.96767 14.8315 3.41498
369 123 2 4.92466 -2.19909 -1.09693 5.49337 -1.7326 3.81914
368 123 2 4.62671 -0.692067 -0.376577 -3.23415 -6.46768 -1.89451
419 140 2 7.04807 -2.37688 -1.19145 -6.57318 7.79235 -2.07307
50 17 2 3.17644 -2.31287 -0.290842 -18.3233 2.72184 -2.4206
248 83 2 0.338955 -2.4378 -0.797974 -8.50542 3.05724 -0.15345
397 133 1 2.25757 -3.7653 2.26421 -8.02999 1.68232 -0.999977
399 133 2 3.06495 -4.37279 2.24511 7.54347 -3.57041 1.26216
398 133 2 1.47098 -4.27041 2.67669 -0.0546151 2.1449 0.0743589
159 53 2 5.22186 -6.15807 1.63229 -7.5522 -2.33731 6.31721
157 53 1 6.07089 -5.77829 1.2276 19.3856 9.93779 -6.91712
500 167 2 5.77199 -4.02973 0.440889 -7.93125 2.83274 -24.531
49 17 1 2.18221 -2.57396 -0.136698 10.768 7.27876 -25.2272
51 17 2 2.09209 -2.74481 0.862206 -1.81365 -9.15323 16.4553
351 117 2 2.51967 -7.08121 1.10761 -4.70704 3.45361 17.4
153 51 2 6.08362 -6.76476 -1.89434 -1.31092 15.8199 2.0967
158 53 2 6.8288 -5.97961 1.89617 -0.969278 -3.9632 -4.48782
274 92 1 1.81777 -6.80403 3.03486 1.35452 22.1853 29.2355
95 32 2 5.77128 -0.00417005 3.14789 10.1636 -0.532061 7.55058
636 212 2 -0.868885 3.7821 -2.80751 -5.13724 -34.1492 -0.538754
634 212 1 -0.712569 4.74541 -2.62063 11.9926 32.3532 -16.6445
259 87 1 -2.02251 7.09903 -0.153571 14.7447 32.2233 5.52703
261 87 2 -2.56583 6.51394 -0.805553 -8.9302 -11.738 -2.37582
232 78 1 -4.0617 0.781219 2.43838 6.91751 -6.09332 -12.2131
233 78 2 -4.57588 1.66702 2.28824 -4.5728 -10.4092 -5.24909
234 78 2 -4.13895 0.144661 1.61523 1.13081 10.72 10.2337
374 125 2 -0.414398 6.99851 -0.777355 -5.27643 -15.6466 -1.10259
567 189 2 -1.26724 2.09535 0.291578 1.03905 0.471111 2.33027
166 56 1 -5.79104 2.5283 1.15113 1.46214 -4.3414 4.78029
303 101 2 -4.01954 5.05933 -2.0526 -0.846579 4.81486 -3.22441
372 124 2 -0.614108 3.43869 1.95743 2.36905 3.59187 2.97006
254 85 2 -7.19359 0.165925 -1.58992 -2.59091 -5.91386 -1.97112
321 107 2 -5.00851 6.41443 -0.46773 2.63533 5.54498 1.82348
320 107 2 -4.74549 6.87667 1.08894 0.139743 4.01775 4.76899
319 107 1 -5.24904 7.12669 0.235528 -2.95028 -5.79204 -7.03357
167 56 2 -5.30437 2.76209 0.275961 -11.4726 2.61394 -1.0819
168 56 2 -6.76748 2.19114 1.00477 11.9976 7.12851 -2.26521
302 101 2 -3.67235 6.72208 -2.44835 -8.78942 -18.5859 0.926986
301 101 1 -3.70362 5.97757 -1.71875 -3.03364 3.09953 -13.8645
17 6 2 -3.07892 5.95158 2.80058 3.35455 -25.8348 12.6035
561 187 2 -5.83272 2.37127 -1.67605 22.0745 5.29538 -6.24172
565 189 1 -2.04033 1.74046 -0.27969 -1.28874 0.635373 -0.0624096
560 187 2 -4.07551 2.58851 -1.61711 4.64897 -14.1812 -5.03479
559 187 1 -4.997 2.99106 -1.55977 -26.3932 6.20567 9.4117
16 6 1 -3.20421 6.79699 2.27085 -3.03631 30.0014 -9.70392
18 6 2 -2.51753 6.83627 1.49862 -4.52149 -4.00466 -1.83802
566 189 2 -2.74138 1.39105 0.367275 -2.91678 -1.98345 0.812037
371 124 2 -1.26603 2.04812 2.68145 2.22023 6.72337 0.520274
253 85 1 -7.30972 1.04926 -2.10457 1.95681 -0.988511 -11.0139
255 85 2 -7.15574 0.729694 -3.10911 0.20066 15.2608 19.751
35 12 2 -1.53442 1.85322 -1.83325 -0.837377 -9.53948 -15.2001
34 12 1 -1.06981 1.74823 -2.76889 7.02569 17.0883 12.0758
370 124 1 -0.53443 2.42416 2.07705 -4.20602 -9.22868 -5.45376
348 116 2 5.85378 3.3777 -3.10597 4.48574 4.821 17.5897
375 125 2 0.351858 5.95372 -1.94986 -22.3618 -7.68457 8.9316
350 117 2 2.05535 6.87446 -0.299038 -0.855597 1.46736 2.81968
373 125 1 0.466834 6.65987 -1.20769 28.5694 18.8567 3.16592
349 117 1 2.86376 7.15873 0.268508 -2.16533 -7.45216 -17.84
644 215 2 3.99335 0.276295 -2.07802 -7.94951 -17.5404 -10.7937
545 182 2 0.703333 5.21847 0.369181 -9.46511 1.87928 18.591
544 182 1 0.588677 5.03338 1.38297 26.5625 -15.0027 -14.5514
546 182 2 1.46193 4.56621 1.70171 -21.001 11.0657 -2.29683
315 105 2 1.30173 1.72129 1.74579 -7.62848 10.014 19.6369
439 147 1 4.42704 0.288781 1.05103 24.8891 -2.10605 5.62927
440 147 2 3.65108 0.904006 1.28179 -12.8071 -1.91009 -2.8145
313 105 1 2.05733 1.79289 1.07906 -6.67411 -11.3467 -13.5014
557 186 2 6.01355 2.88597 0.295305 3.05427 -13.5794 3.99216
558 186 2 6.49056 1.67195 -0.643034 5.97409 -5.90073 4.53704
556 186 1 6.31812 1.89125 0.353946 2.64113 27.9405 -16.1248
645 215 2 4.20783 1.70026 -2.56393 -3.71852 12.8719 -16.3295
643 215 1 3.64797 0.894639 -2.82961 16.7843 2.52179 26.4404
441 147 2 5.29541 0.892822 1.00085 -17.302 -9.72282 -6.51472
381 127 2 2.05022 0.73094 -2.18061 -1.36611 4.98577 -7.31177
314 105 2 1.53248 1.40433 0.283223 18.1147 2.0632 -9.8707
379 127 1 1.20256 0.607673 -1.61481 -8.71568 -6.16454 20.4076
380 127 2 0.344457 1.03278 -1.99098 5.80111 4.22075 -12.2215
151 51 1 6.31039 6.94665 -2.0304 -3.29177 -40.9387 -24.7034
152 51 2 6.7339 6.80709 -2.9917 -6.42953 6.43635 22.822
305 102 2 5.89127 5.14298 -1.53633 6.01979 -4.83958 2.76631
614 205 2 3.61011 2.50446 1.73846 -7.00119 0.720278 -2.25208
615 205 2 3.54533 3.72355 2.83439 3.5015 4.93948 1.0622
297 99 2 1.89937 4.72297 -3.15134 17.8305 -1.38825 0.960553
295 99 1 2.78625 5.14612 -2.83936 -18.4226 -11.5816 -5.07532
296 99 2 2.58281 6.11402 -2.66743 5.79942 10.8407 2.41158
304 102 1 5.46506 4.34113 -1.04395 -9.52377 19.798 4.16734
306 102 2 4.63238 4.79584 -0.648039 6.12889 -12.2507 -2.67055
613 205 1 4.15719 2.98367 2.45314 5.19476 -0.362412 6.29811
23 8 2 2.50155 5.9666 2.9436 -3.6596 7.66414 -3.18856
102 34 2 6.99912 6.97808 3.20266 -16.2087 -21.0789 -12.9453
110 37 2 6.07209 5.33232 2.44334 0.898677 -24.1533 -18.6119
109 37 1 5.66652 5.879 3.167 -13.384 25.5684 36.1642
496 166 1 -1.98357 -3.20702 5.06767 25.2913 33.2874 -17.3138
498 166 2 -1.27947 -2.78072 5.70433 -12.6626 -9.66919 -7.28884
536 179 2 -5.63546 -1.89996 3.90353 -12.9969 12.0066 -9.41118
497 166 2 -1.69902 -2.85354 4.11872 -12.2949 -13.8354 22.942
213 71 2 -4.09049 -4.8969 3.72365 2.60782 6.6357 -5.07829
100 34 1 -6.95747 -7.00418 3.26994 6.0482 19.6147 23.1586
461 154 2 -7.17994 -1.03872 6.98371 0.790534 -6.32054 -7.29546
149 50 2 -2.17559 -4.75759 5.40051 1.80076 0.452572 -2.08839
460 154 1 -6.67403 -1.90404 7.26788 -9.08275 21.8723 20.9398
148 50 1 -2.43373 -5.73279 5.63284 -12.9324 -14.4516 14.0347
150 50 2 -2.65865 -5.77951 6.63796 2.78112 3.14686 -3.6502
442 148 1 -4.77871 -2.22904 5.07633 22.2618 -22.9583 10.6535
443 148 2 -3.85922 -2.65999 5.25187 -1.61414 4.40155 -7.04639
444 148 2 -5.06738 -1.7816 5.93775 -10.1066 8.15521 7.68111
288 96 2 -2.07348 -0.335405 6.51823 -6.01775 6.27091 -7.68971
286 96 1 -1.10374 -0.449429 6.79916 3.16768 -11.906 -2.24724
287 96 2 -0.948991 -0.160193 7.75671 6.77965 8.57421 4.82074
509 170 2 -0.51245 -2.77979 9.33945 7.87418 -11.3308 1.72798
326 109 2 -5.92519 -3.40731 7.08781 -8.65418 7.51039 9.1677
462 154 2 -6.83221 -1.86754 8.29201 5.48807 -7.18331 -13.7189
457 153 1 -3.24849 -5.7338 8.59312 11.1674 -3.98512 6.54582
459 153 2 -3.35515 -6.68773 8.94402 -7.98978 -2.14027 -9.32954
458 153 2 -3.21058 -5.17168 9.44088 6.56943 4.66404 -8.6253
325 109 1 -5.74417 -4.35522 7.44004 -8.0431 7.94896 11.0634
327 109 2 -5.33828 -4.8473 6.68733 13.4983 -20.401 -15.2965
101 34 2 -7.02608 -6.77732 4.26803 5.28011 5.14479 -6.80651
572 191 2 -6.57307 -7.20537 6.55768 0.280845 6.37203 -10.1374
27 9 2 -1.76975 -0.800908 9.28146 2.19807 5.74061 9.0704
25 9 1 -1.9201 -1.72127 9.67591 -6.97211 -5.44278 -22.4174
26 9 2 -2.52715 -2.21427 9.00869 4.75163 -0.193371 14.5313
377 126 2 -6.07032 -4.38069 9.1566 7.33805 -0.151565 6.6902
5 2 2 3.86931 -5.20418 4.03315 9.97156 -7.23518 -7.17135
6 2 2 5.18973 -6.21491 4.01551 12.9604 -5.29593 3.98448
4 2 1 4.47582 -5.81052 3.43346 -27.273 19.3431 10.5889
400 134 1 3.70961 -5.65806 7.74071 13.4798 22.7048 -4.09573
428 143 2 1.61293 -4.31085 5.1179 -7.89305 18.0911 2.1659
510 170 2 0.811993 -3.95155 9.26179 -12.7668 9.63875 5.56638
508 170 1 0.219632 -3.26333 8.7788 -2.85133 -1.21213 -0.445131
275 92 2 0.894557 -6.45765 3.41115 16.5456 -9.64453 -20.2607
96 32 2 7.27458 -0.435242 3.80961 -7.10427 4.06943 -6.71751
276 92 2 2.47898 -6.15558 3.53836 -16.4492 -22.1316 -17.6363
429 143 2 2.5797 -5.28332 5.91327 5.46409 1.56869 5.00619
2 1 2 0.688645 -3.18037 7.2731 5.42827 0.25393 -4.58901
3 1 2 1.08266 -1.84669 6.4451 2.38444 -5.35976 -4.4885
1 1 1 1.09754 -2.87076 6.36326 -11.7017 12.1068 3.28646
401 134 2 4.51856 -5.12985 7.33424 -15.2735 -3.13175 10.1925
185 62 2 6.42364 -5.56219 6.46428 -2.45003 17.3779 10.2926
587 196 2 6.46829 -3.44461 6.60153 1.29556 7.10988 -1.12739
588 196 2 5.58249 -3.44206 7.98972 -4.0603 0.735586 -5.75531
427 143 1 2.39234 -4.94025 4.97238 10.7447 -18.6064 1.1596
586 196 1 5.84839 -4.01208 7.17181 4.3923 -16.112 7.36005
402 134 2 3.71405 -6.60427 7.37768 1.29007 -11.0726 -2.10402
330 110 2 3.11238 -1.79752 6.23306 -5.15135 -0.99685 0.328987
328 110 1 4.02148 -2.14229 5.93104 -2.49905 13.5596 -3.31786
184 62 1 6.54235 -6.41781 5.93412 15.1457 -12.3061 -12.114
186 62 2 5.63093 -6.88722 5.87367 -6.47133 -8.01487 2.98507
329 110 2 4.16 -1.78746 4.98771 3.3491 -5.64844 3.0044
29 10 2 1.26968 -7.08856 9.50552 -6.74452 4.80956 7.20421
528 176 2 4.33994 -5.29685 9.56691 3.81479 -5.69621 16.29
290 97 2 4.07806 -2.12193 7.8368 11.1403 -6.10958 13.9178
291 97 2 3.4725 -2.57589 9.31418 1.66703 9.24175 -0.724377
289 97 1 4.34321 -2.36307 8.81836 -10.8173 -0.869771 -19.2802
485 162 2 -5.41254 3.80088 3.47529 -10.0909 -6.26475 12.6948
512 171 2 -1.9981 6.96308 5.50271 4.35679 -5.42519 16.4261
344 115 2 -1.26702 2.35502 7.54433 3.0471 -0.589477 12.8822
345 115 2 -1.76728 1.82693 6.13141 -5.01081 1.6816 -11.7104
403 135 1 -3.18225 0.947689 5.23078 16.3088 3.39122 0.963407
175 59 1 -0.328214 0.973301 9.3184 -25.2846 -12.1369 -13.2202
404 135 2 -3.04088 1.0567 4.21839 -13.1041 -4.36994 4.84119
217 73 1 -4.61008 6.5087 9.00346 34.4372 -38.2974 7.62896
218 73 2 -4.99933 6.4997 8.02595 3.13294 10.1089 10.2553
511 171 1 -1.65772 6.05484 5.8726 -0.453494 -1.71632 -24.1429
343 115 1 -1.22602 2.58296 6.56341 2.34244 1.27977 -1.01521
484 162 1 -5.26673 3.70064 4.49339 18.9808 13.1523 -20.777
589 197 1 -2.91392 4.49774 3.80289 15.0141 6.37013 -9.04297
591 197 2 -3.83548 4.16996 4.15998 3.47294 -0.212585 5.90586
513 171 2 -1.94569 5.7801 6.80783 -4.48154 9.52339 6.5544
358 120 1 -1.8502 4.75296 8.51305 3.86594 15.2681 10.5322
360 120 2 -1.21479 4.4019 7.80399 1.54727 -3.82223 -3.35208
405 135 2 -4.11589 1.30466 5.49762 -3.83898 -4.47133 0.909573
486 162 2 -6.10224 3.42136 4.97709 -16.2087 -3.91869 -0.753096
573 191 2 -4.90461 7.26998 6.05212 -8.11009 5.423 -7.30646
571 191 1 -5.65037 7.05024 6.70783 2.21808 -13.3635 4.00759
597 199 2 -3.95258 3.76577 7.71665 -3.93601 2.07831 3.09685
595 199 1 -4.85363 3.50037 8.12183 2.20961 3.04082 7.53711
596 199 2 -5.42271 4.27947 8.45633 4.93983 0.95374 -5.51281
579 193 2 -0.0171944 3.30749 5.47106 -14.8942 -18.9271 18.4941
435 145 2 -5.82811 2.51138 6.50854 20.2692 -18.5231 2.11409
433 145 1 -5.65904 1.50706 6.2753 -38.654 21.8701 -1.26949
590 197 2 -2.32699 4.9096 4.53797 -5.0814 -1.2538 4.72572
219 73 2 -3.81956 5.83061 9.12637 -18.8782 16.2469 -8.33104
41 14 2 -6.81816 1.45205 8.28062 8.4488 -6.53654 11.7492
434 145 2 -6.64201 1.21726 6.13989 17.4476 -12.9967 -0.649528
40 14 1 -6.30654 1.42018 9.17352 -15.9476 -0.911941 -6.55307
42 14 2 -5.56674 2.11644 9.06907 6.7405 4.11282 -3.76089
359 120 2 -1.29268 5.0247 9.38501 -18.194 -12.6532 -16.8181
22 8 1 2.87331 5.11685 3.37387 2.14509 5.50806 -19.0417
24 8 2 2.64429 5.14325 4.36271 0.701647 -3.68032 15.4262
111 37 2 4.79435 5.52932 3.61182 14.3931 -2.70714 -20.1798
177 59 2 0.64146 1.2552 9.36714 5.29265 2.98276 12.2565
94 32 1 6.42751 0.164357 3.92856 -6.43703 -14.0074 -8.73407
337 113 1 6.42928 0.203412 6.66014 -28.0564 23.2746 6.79992
338 113 2 6.15234 0.272068 5.67199 11.7889 -9.82933 -9.33861