ITEM: TIMESTEP
49000
ITEM: NUMBER OF ATOMS
648
ITEM: BOX BOUNDS pp pp pp
-7.2812116011130588e+00 7.2812116011130588e+00
-7.2812116011130588e+00 7.2812116011130588e+00
-1.6180470224695966e+01 1.6180470224695966e+01
ITEM: ATOMS id mol type x y z fx fy fz
29 10 2 -6.01073 -3.32608 -14.0299 -3.82471 15.995 4.17127
637 213 1 -5.22654 -5.55916 -11.3053 -3.41015 59.5158 -3.6843
639 213 2 -5.29059 -5.12654 -12.2361 -1.8937 -7.13247 -6.92005
638 213 2 -5.21762 -4.63725 -10.7951 -8.75641 -23.1056 11.8652
30 10 2 -4.5016 -3.94747 -13.782 23.9284 10.6031 1.11522
131 44 2 -5.38263 -0.909226 -14.2952 -3.47213 -4.43871 -0.66614
169 57 1 -2.8323 -6.33488 -10.8576 14.7911 0.554405 -12.1337
556 186 1 -2.89499 -3.04574 -13.6125 -15.9288 -10.4158 1.29092
171 57 2 -2.06919 -6.18963 -11.5715 -16.6398 -0.0318138 15.6319
201 67 2 -0.442944 -5.36645 -12.1538 -1.71033 3.00768 -0.964721
200 67 2 -1.39014 -5.24768 -13.6147 14.135 9.48295 6.20191
170 57 2 -3.67289 -5.75466 -11.0836 9.73531 -11.1387 6.52406
557 186 2 -3.14945 -2.06882 -13.7702 0.88209 10.8636 1.13494
558 186 2 -1.91012 -3.14351 -13.8135 13.6733 0.488677 -5.74807
28 10 1 -5.49399 -4.12779 -13.6797 -18.6531 -24.2739 -0.884307
487 163 1 -6.45768 -6.73853 -13.5627 -8.74523 18.7266 -24.5349
488 163 2 -6.15179 -5.76856 -13.7487 -1.50463 -8.75311 -3.60074
618 206 2 -0.491148 -0.0786099 -13.957 -1.69782 -36.3267 -26.4534
523 175 1 -0.637301 -1.34925 -15.1895 2.72019 8.62147 -2.88599
199 67 1 -1.08824 -5.83072 -12.818 -9.72394 -13.4467 -3.3573
269 90 2 -1.05182 -6.9898 -13.8705 4.95313 12.4951 -3.9332
8 3 2 -6.89426 -5.74281 -10.9981 -5.05792 -2.91567 3.25887
44 15 2 -0.659416 -2.38362 -10.1197 16.7267 7.14984 -12.84
130 44 1 -6.28427 -1.40438 -14.1959 9.65803 3.99397 18.5487
132 44 2 -6.54847 -1.24972 -13.2052 -7.5652 -3.76389 -11.0103
368 123 2 -0.058116 -4.67291 -15.662 -0.168574 -2.83967 -13.6069
367 123 1 -0.206886 -4.0775 -14.8463 -0.672681 17.6723 19.8458
595 199 1 -3.62766 -0.291593 -13.8641 -18.4027 -2.28973 -36.9043
489 163 2 -5.91363 -7.01615 -12.7627 11.1904 -17.5308 16.7896
477 159 2 -0.209229 -4.48833 -10.1409 3.34039 -20.7889 9.30896
84 28 2 -5.51984 -2.35974 -10.0872 4.40543 4.05102 -1.86426
82 28 1 -5.94559 -3.27202 -9.9515 10.3239 5.02715 -7.80935
193 65 1 -4.23087 -0.0231843 -10.1321 0.80979 -12.1242 3.4686
525 175 2 -1.33942 -1.31872 -15.9455 4.05517 -1.32463 1.55977
522 174 2 -5.22326 -2.96482 -15.7007 -4.54377 0.985605 16.7769
117 39 2 -7.25864 -0.84775 -15.6284 4.79179 8.62998 -21.308
632 211 2 6.93069 -4.67799 -14.2329 -10.0109 1.09457 -1.2113
7 3 1 6.68759 -6.07267 -10.9962 -1.47469 -17.7205 -3.79485
476 159 2 0.455469 -6.07568 -9.829 13.0348 -21.7428 33.4624
383 128 2 6.2787 -1.88684 -11.0868 -8.38628 13.8315 2.35363
285 95 2 4.1837 -2.97634 -9.88347 7.15786 7.42755 7.3304
369 123 2 0.0879243 -3.11187 -15.0796 -6.51116 -13.5208 5.35471
371 124 2 4.54547 -6.27819 -10.3135 -7.65676 -14.6091 6.18449
145 49 1 4.87723 -2.08341 -13.9739 -12.5903 25.845 -10.9195
146 49 2 3.97786 -2.33629 -13.5589 -9.0602 -1.08901 4.31766
516 172 2 3.50863 -5.267 -13.5655 0.311586 -1.82247 -14.0199
514 172 1 3.07826 -5.4597 -12.6687 -6.47114 -12.6869 23.9486
515 172 2 3.20669 -6.44957 -12.3799 1.64172 12.7287 -10.2348
147 49 2 5.57442 -2.54303 -13.414 11.6865 -8.47797 -0.157324
67 23 1 2.42822 -2.57805 -12.7895 -2.94497 -4.54143 1.33703
68 23 2 1.86534 -2.08145 -12.1054 -2.37607 10.5402 2.1164
69 23 2 2.20587 -3.56813 -12.6414 8.21726 -3.58802 -6.634
370 124 1 3.97833 -6.99149 -9.80351 9.9462 44.7748 5.28221
633 211 2 5.93502 -5.01957 -12.9497 -1.01199 5.84864 -12.3649
631 211 1 5.97704 -4.56355 -13.8806 14.6546 -19.1976 22.3738
621 207 2 2.05809 -4.51944 -10.2086 10.4639 3.87064 16.1138
524 175 2 0.349706 -1.34147 -15.5096 -5.02613 -2.65994 -2.69047
382 128 1 6.7075 -1.08662 -11.5634 23.488 -20.3513 -13.7156
9 3 2 6.70958 -7.11095 -11.0188 -4.85491 16.6526 1.18508
625 209 1 0.249174 -0.913053 -10.7678 -1.18494 -5.15998 8.38218
585 195 2 2.34195 -1.86183 -14.6326 11.8354 -7.07032 40.5023
384 128 2 6.15452 -0.240194 -11.614 -12.0301 8.57658 7.50787
306 102 2 4.58369 -0.677256 -15.2838 1.41412 5.54803 -1.58053
51 17 2 2.19091 -6.58778 -15.6389 -4.86454 9.58875 -6.42645
627 209 2 0.575738 -1.12639 -9.81756 3.81148 7.34927 -4.86419
475 159 1 0.109105 -5.42031 -10.5014 -18.0512 62.7904 -43.7768
173 58 2 4.59546 -4.81928 -14.826 24.168 11.5133 -2.26839
172 58 1 3.79987 -5.07075 -15.4047 -27.825 -14.327 -28.6483
584 195 2 2.58386 -2.52638 -16.127 2.92028 -4.2482 -4.3032
583 195 1 2.03619 -1.86263 -15.5701 -17.8634 10.3773 -40.0977
49 17 1 1.31551 -6.98593 -16.0081 14.9136 -25.9436 13.4372
597 199 2 -3.70157 0.263748 -14.7639 5.24723 -12.3089 21.5273
360 120 2 -4.18296 7.18058 -11.4887 -13.4291 -11.5529 2.31652
596 199 2 -3.3396 0.392242 -13.1796 5.27844 8.98254 18.677
363 121 2 -6.55519 1.55156 -11.8303 -7.04316 -3.51046 4.46802
616 206 1 -0.484342 0.664803 -13.2986 30.4378 44.1574 33.3052
198 66 2 -1.88409 0.86201 -12.3833 17.7677 -5.46675 -3.20638
362 121 2 -5.14265 0.758787 -12.0343 13.4202 -22.2015 6.79503
361 121 1 -5.60711 1.62384 -12.1784 -14.6961 23.2444 -18.1622
447 149 2 -0.91853 2.15719 -13.9419 2.6342 -30.3473 10.7682
519 173 2 -2.32527 4.23598 -13.4718 17.0176 -12.1357 -21.3566
517 173 1 -2.47156 5.18526 -13.1725 -33.8795 17.3847 38.2376
518 173 2 -1.98063 5.96772 -13.6229 9.26818 -10.7702 -15.7721
358 120 1 -4.67056 6.31834 -11.8195 32.5859 6.79344 -0.730314
359 120 2 -3.87996 5.75448 -12.1848 -8.8456 9.5505 -9.35141
268 90 1 -1.09171 6.96932 -14.7048 2.83179 -26.6397 -12.8041
222 74 2 -5.67998 3.56217 -11.9859 1.07246 -18.3378 -8.994
221 74 2 -5.39851 5.0823 -11.3813 -15.9935 -10.0476 0.460551
196 66 1 -2.62767 1.32361 -11.8561 -14.1123 -12.4713 -3.06306
508 170 1 -3.04487 3.93312 -10.6315 -22.9383 -21.1831 21.3439
510 170 2 -4.03637 3.75333 -10.365 15.8502 3.86513 -12.811
509 170 2 -2.95916 4.55898 -11.4058 7.50919 13.6576 -19.6011
197 66 2 -2.29813 2.25977 -11.6868 -0.144503 16.6036 11.303
220 74 1 -5.94716 4.18719 -11.2385 -0.286166 23.951 15.7455
270 90 2 -0.201739 6.94311 -15.2405 -9.12977 11.9827 7.37236
309 103 2 -0.177012 7.03444 -12.276 0.473152 -27.505 15.9023
194 65 2 -3.65732 0.492756 -10.7859 22.9339 1.60761 -17.8061
318 106 2 -6.4699 2.50943 -9.9225 -11.2418 -2.00239 0.6599
594 198 2 -6.5855 6.75604 -15.5253 5.69336 -7.69043 -7.64077
332 111 2 -2.75948 1.92751 -15.46 10.957 10.0987 5.77833
445 149 1 -1.20159 2.95257 -14.4851 15.2478 50.9248 -1.09824
331 111 1 -3.49982 1.38595 -15.8952 2.7368 -13.0146 1.93131
570 190 2 -2.12373 5.28715 -15.9221 7.35263 2.75946 -48.7441
446 149 2 -0.433965 3.63624 -14.2542 -25.3983 -19.6514 -11.6498
372 124 2 4.00933 6.71193 -10.298 4.60116 -27.6964 -24.2391
423 141 2 3.1792 5.47663 -13.0064 12.0728 -3.26221 -6.11548
422 141 2 2.15241 6.4605 -12.4151 -27.5417 8.54534 6.30096
617 206 2 0.512013 0.952891 -13.1077 -26.5323 -12.6109 -8.38977
13 5 1 0.768994 1.77732 -9.89397 -5.42224 -21.2566 -16.7753
15 5 2 1.09143 2.44276 -10.5723 -1.57887 18.815 -10.6697
555 185 2 5.44343 2.71833 -11.5323 0.0811135 3.52391 0.527655
553 185 1 5.52857 1.70992 -11.5174 -40.9589 -22.5581 10.1583
391 131 1 0.876021 3.67726 -12.4947 8.89709 -2.51336 -2.55915
392 131 2 0.625432 4.49709 -11.9304 -5.84886 5.55191 -1.72104
378 126 2 6.70853 6.88726 -13.8851 -20.5742 -23.4963 -4.28328
304 102 1 4.3949 0.242872 -15.7284 -36.5739 -10.0596 -7.08977
308 103 2 0.641522 6.84539 -10.9456 -1.21486 -8.97542 15.8901
554 185 2 4.58131 1.29952 -11.2265 39.6572 14.7038 -13.0317
37 13 1 2.11933 5.09209 -14.7402 -4.01195 12.367 1.46033
39 13 2 3.01325 4.85113 -15.2033 -1.71106 0.310649 0.0444704
421 141 1 3.12606 6.2664 -12.3719 12.6791 -1.5976 4.93379
274 92 1 2.84529 0.607364 -11.2195 18.1121 2.84038 6.2847
393 131 2 1.54767 3.96655 -13.2192 -6.32799 -1.11904 0.771329
377 126 2 5.95188 6.02129 -12.7904 -10.361 -9.05939 -2.09977
481 161 1 6.12094 5.61683 -10.792 20.0967 33.5687 -29.7358
483 161 2 5.45344 5.09173 -10.2091 0.56311 -14.6694 13.5117
482 161 2 7.05325 5.1967 -10.904 -2.96085 -12.9972 6.1543
38 13 2 1.7658 6.01501 -15.0684 8.30853 -16.8186 -1.32531
644 215 2 6.63839 2.15537 -14.0428 10.0281 -7.6896 17.7068
643 215 1 6.06398 2.32458 -14.8397 -26.7883 -21.555 -27.8152
645 215 2 5.46897 1.49286 -15.1173 14.8415 22.6672 9.87069
437 146 2 1.70617 1.52192 -14.7618 -2.7321 6.65147 -12.4312
436 146 1 2.2722 1.0905 -14.0405 6.46711 -8.1954 14.1912
438 146 2 3.16728 0.773078 -14.4365 -3.6476 4.44391 -0.3498
376 126 1 5.96962 6.13041 -13.8086 30.5842 35.5422 13.7571
276 92 2 2.68652 0.687609 -12.2196 -6.35739 1.98363 -10.8266
186 62 2 5.09873 5.32431 -14.9402 4.19109 -11.2515 -6.02992
307 103 1 0.184126 6.27056 -11.6557 4.57367 38.1821 -26.2229
275 92 2 2.07577 1.01179 -10.6699 -1.78344 -5.21639 2.16856
626 209 2 0.17915 0.111549 -10.8259 -0.870773 -4.69779 2.69564
185 62 2 5.35318 3.70395 -15.2459 -8.60312 8.01079 -7.19406
184 62 1 4.76177 4.52523 -15.5299 -2.61018 2.99363 4.17628
45 15 2 -1.76795 -2.67811 -9.12802 -3.40284 -3.88536 19.1941
43 15 1 -0.839104 -3.05449 -9.38112 -8.28181 -5.32726 -10.5342
351 117 2 -3.33138 -1.44039 -9.29842 -0.937896 14.0495 21.3945
350 117 2 -2.8926 -1.27643 -7.572 0.15165 -1.85349 -24.0558
559 187 1 -3.27411 -6.79074 -8.14955 22.5282 10.2177 4.22323
413 138 2 -4.69755 -2.86362 -7.71132 0.698289 -13.3519 20.3677
561 187 2 -2.66162 -6.06143 -7.70947 -12.4769 -3.91074 -12.5046
560 187 2 -3.03325 -6.80009 -9.16456 -5.36505 3.13158 8.6309
412 138 1 -4.90814 -3.45407 -6.87739 -6.38431 14.6363 -15.2372
431 144 2 -1.49973 -4.09722 -8.0865 10.9513 16.9929 6.29664
414 138 2 -4.2876 -4.25442 -6.89013 6.04774 -4.09567 -0.117647
430 144 1 -1.83579 -4.5335 -7.22704 -22.1791 -42.3604 -4.31454
277 93 1 -6.3724 -3.05997 -4.40245 0.0430362 36.4876 42.5726
602 201 2 -6.98013 -4.1987 -7.63505 21.8329 2.74303 4.06816
83 28 2 -6.88754 -3.08547 -9.63271 -9.81669 -7.50042 6.61934
576 192 2 -0.929554 -0.013981 -6.31758 11.3882 -1.4239 -4.47693
267 89 2 -4.63986 -7.17787 -7.21657 0.77583 0.899754 2.18377
279 93 2 -5.71312 -3.25715 -5.11966 17.4331 -10.7907 -34.1966
135 45 2 -1.01385 -0.384437 -3.5794 -6.93444 5.68627 17.668
432 144 2 -1.69345 -4.08153 -6.32258 11.7085 18.9709 -0.0668832
537 179 2 -3.39881 -0.283201 -5.21079 5.23134 2.67311 3.71737
349 117 1 -2.99906 -1.88407 -8.41707 -5.09407 -1.76051 -1.18715
53 18 2 -3.72028 -6.11701 -3.97216 -19.8571 0.656372 0.67341
52 18 1 -2.88185 -5.56341 -3.93753 24.9482 2.6376 1.03481
54 18 2 -2.99962 -4.5528 -3.95555 -6.31342 -4.65389 -0.450272
278 93 2 -6.03046 -2.1501 -3.99804 -18.9275 -25.0296 -9.03891
456 152 2 -6.18954 -4.8115 -3.74986 1.88495 -5.79771 -0.708934
454 152 1 -6.02822 -5.77188 -3.40919 -2.40727 12.6191 -11.578
282 94 2 -0.653633 -2.75409 -4.21132 4.45844 -0.882554 -5.91832
280 94 1 -1.06912 -2.75252 -5.15301 -6.98041 -5.42718 5.32811
281 94 2 -0.879296 -1.88046 -5.63804 3.28048 1.18134 -2.47859
505 169 1 -6.48269 -0.0194109 -3.91849 -17.474 15.7748 40.2313
473 158 2 -2.33259 -7.27212 -6.5586 29.2405 -20.2203 23.3999
535 179 1 -3.7907 -0.217447 -4.26719 -14.3852 -3.69692 -3.77943
536 179 2 -4.8324 -0.178356 -4.34322 12.1398 4.57862 8.11183
620 207 2 2.54724 -4.34985 -8.54284 -5.49897 2.98538 -14.6738
619 207 1 2.69041 -4.04552 -9.53238 -8.71936 -5.96962 -2.83288
478 160 1 1.38152 -7.18457 -9.19104 39.3644 -29.051 17.1647
479 160 2 2.40742 -7.00762 -9.316 -16.1443 8.70684 -9.07196
284 95 2 5.28794 -2.92057 -8.69319 10.0314 -7.32818 8.08322
283 95 1 4.95689 -2.39565 -9.49704 -7.56678 -8.11722 -19.1994
603 201 2 6.1909 -4.96845 -7.44063 -11.1461 -17.2383 3.81064
601 201 1 6.61281 -4.1765 -7.8886 -12.7171 17.9077 -6.9371
79 27 1 5.46081 -2.9431 -4.91373 6.29811 -8.8105 37.2101
544 182 1 0.870771 -0.649339 -6.36065 -2.90647 -8.92584 12.1993
504 168 2 4.40746 -6.40661 -8.35596 4.06124 -5.9436 15.9502
502 168 1 4.33705 -6.17275 -7.33815 -5.44883 8.64715 -5.04917
503 168 2 3.42687 -5.69829 -7.29297 1.81141 3.77517 8.89264
548 183 2 4.88378 -5.79471 -5.6593 3.66533 -8.7192 -12.3294
533 178 2 2.1305 -4.1972 -6.05186 -12.2131 -15.9456 1.9688
532 178 1 2.0674 -4.71872 -6.93982 17.8027 7.49112 -26.0006
534 178 2 1.49832 -5.56574 -6.99088 -10.3285 3.087 13.8384
547 183 1 5.08811 -5.68069 -4.66647 -19.1837 12.382 1.56549
549 183 2 4.97342 -4.65383 -4.54677 14.343 -7.96494 4.30651
467 156 2 5.73663 -0.921233 -9.14809 -9.21918 -0.536433 -1.1843
606 202 2 3.13756 -5.42243 -4.47556 10.61 -5.96834 6.69374
604 202 1 2.24549 -5.01366 -4.21834 -30.5902 -16.4187 33.0206
466 156 1 6.0535 -0.0118663 -8.7887 8.15786 12.3591 8.7707
386 129 2 1.14398 -6.77577 -5.09072 -8.42767 -4.35947 -3.53072
545 182 2 1.50429 -0.208812 -5.68613 -2.31254 -1.10607 -10.1295
546 182 2 1.37513 -1.33256 -6.94862 -1.71599 16.8283 1.27428
491 164 2 6.56871 -0.0575697 -7.0009 3.48493 -3.01915 -19.8282
611 204 2 2.06416 -2.27381 -8.75416 4.39001 -7.66549 -3.05185
490 164 1 6.30385 -0.00254201 -6.0308 -5.42511 -2.39936 13.6421
610 204 1 2.41681 -1.32409 -8.69717 -22.2018 -2.10215 14.9718
612 204 2 3.07915 -1.18378 -9.43753 13.8148 6.92577 -10.65
342 114 2 1.44615 -3.50356 -3.79968 10.0108 -13.7093 -6.1193
81 27 2 5.70677 -2.6395 -5.8352 5.86356 8.16075 -15.8079
80 27 2 6.33885 -2.92316 -4.33449 -14.3647 -0.902986 -20.0603
293 98 2 4.34425 -2.03561 -3.37942 17.2528 -29.1472 -47.6872
605 202 2 1.8209 -5.46123 -3.351 22.1362 17.2133 -26.7438
543 181 2 -6.83966 6.95759 -8.07695 18.6464 3.42521 3.67481
266 89 2 -5.14469 6.37348 -5.9888 4.09311 -13.8211 5.79001
265 89 1 -5.37941 7.18387 -6.52364 -1.71949 14.1783 -16.5432
575 192 2 -2.0292 1.0999 -6.7557 1.35598 1.42978 1.89904
574 192 1 -1.92103 0.115189 -6.51491 -11.2089 -4.34365 0.0977874
122 41 2 -4.70177 5.73652 -4.4179 19.5443 -4.25319 10.7655
387 129 2 -0.111794 6.7978 -5.75332 21.0393 7.34152 4.49337
121 41 1 -3.66695 5.5935 -4.40373 -21.1834 8.58756 -7.72379
286 96 1 -2.66304 4.12473 -8.09202 -3.48057 -8.68523 7.69035
288 96 2 -2.37795 5.08042 -7.94228 4.03808 11.2521 2.86935
287 96 2 -2.74719 3.98764 -9.12459 6.01064 -0.818509 4.76081
195 65 2 -4.66161 0.777175 -9.67927 -20.2857 1.28987 12.9151
317 106 2 -6.7205 1.21256 -8.77657 -31.8119 -12.7807 2.70496
316 106 1 -6.09906 1.79376 -9.29802 41.5582 21.6879 2.08136
636 212 2 -1.51927 3.41773 -6.57796 -8.75499 11.5659 -16.0643
403 135 1 -5.24377 3.78482 -7.11814 13.3689 1.97782 -1.36815
404 135 2 -5.59573 3.17855 -7.83701 -11.1593 -12.0904 -10.8768
405 135 2 -4.24021 3.85033 -7.36601 -3.41866 6.49963 9.33107
402 134 2 -6.77327 3.50339 -6.30084 2.19044 2.43244 3.29767
634 212 1 -0.989603 2.85846 -5.93402 -1.01629 -5.40597 -0.531056
635 212 2 -1.57034 2.81564 -5.08084 6.21197 -4.8399 6.96062
380 127 2 -6.40631 7.19019 -3.88366 7.49413 9.40333 6.89925
123 41 2 -3.42595 4.94414 -3.66471 -0.111557 -6.25823 2.71042
178 60 1 -2.22596 2.49221 -3.56679 -21.9256 -8.41413 1.59231
299 100 2 -1.60317 7.19146 -3.27048 1.7787 11.0777 0.423745
507 169 2 -7.1314 0.0919193 -4.67695 -11.7785 -6.60396 -36.4171
474 158 2 -2.28512 6.21339 -5.34502 -20.9119 -18.5017 23.3002
472 158 1 -1.67468 6.75564 -5.92134 -11.7591 33.0611 -46.9613
379 127 1 -6.52095 6.17112 -3.80768 -12.5767 -19.4541 -18.1144
14 5 2 0.974939 2.11483 -8.95364 5.28689 7.04722 17.0297
480 160 2 1.52917 6.51651 -8.62706 -16.1216 10.2209 0.0696958
366 122 2 1.98707 3.14527 -6.76822 9.09562 6.00721 32.6911
542 181 2 6.31602 6.75006 -8.97921 0.842533 -1.63261 -9.67265
541 181 1 6.72096 6.87525 -8.06124 -18.1128 -6.08637 1.78834
347 116 2 6.20968 6.31318 -6.69502 3.41111 1.98874 24.9164
60 20 2 3.63355 5.9278 -7.04745 -39.3061 0.940918 4.12533
58 20 1 2.61962 5.78205 -7.29288 43.3658 -10.5474 -24.0814
468 156 2 5.26597 0.607173 -8.52127 2.70729 -6.30849 -1.84077
385 129 1 0.93792 6.93313 -5.61857 -13.2008 1.60546 6.21873
229 77 1 4.57462 4.43773 -9.14055 -25.6027 -17.0203 19.035
230 77 2 3.69771 4.93202 -8.90156 9.57072 -6.98969 1.07019
57 19 2 2.2838 3.53328 -4.41032 1.8653 -22.8492 -19.7852
56 19 2 3.51635 2.48256 -4.87417 8.66725 -6.29168 3.78786
55 19 1 2.57553 2.80223 -5.12601 -7.78662 29.0294 19.3738
59 20 2 1.90493 6.02169 -6.59153 2.74205 8.64908 13.0559
364 122 1 1.40729 2.85351 -7.52713 -20.095 -8.21708 -39.9909
365 122 2 0.436723 2.7994 -7.19177 4.19113 0.380288 10.8576
346 116 1 6.00745 6.12306 -5.66535 -24.9217 22.3192 -8.42652
344 115 2 3.45132 2.06214 -7.13506 29.5799 -12.6596 -5.75135
492 164 2 5.34374 0.361987 -6.01073 7.04885 -3.42449 6.83596
586 196 1 1.73136 4.63922 -3.34338 9.60525 2.01061 13.0537
587 196 2 1.60218 5.48131 -3.88704 -4.7185 5.91729 -10.0055
348 116 2 5.44595 6.9535 -5.33464 23.5949 -26.533 -8.34322
343 115 1 4.43244 1.77779 -7.39898 -20.5808 17.693 6.26997
345 115 2 5.12088 2.06497 -6.68259 -11.5576 -0.497332 -6.54231
500 167 2 5.80462 2.52551 -5.07512 -3.17497 -7.6569 17.225
501 167 2 5.2745 1.93415 -3.58297 17.811 -3.82686 34.587
499 167 1 5.05418 2.00336 -4.54959 -11.9615 15.706 -46.936
231 77 2 4.56485 3.5441 -8.60797 3.16463 12.86 -10.0595
381 127 2 7.27034 5.93429 -4.46774 10.1627 8.38669 0.982493
401 134 2 6.42617 4.34221 -5.81351 3.66519 4.63839 -0.0291664
400 134 1 6.84485 3.40704 -5.89491 -6.85088 -0.300489 -4.11998
133 45 1 -0.433894 -0.426355 -2.73106 24.2984 -11.8021 -43.3445
233 78 2 -3.93249 -2.68735 -0.110635 -0.785964 -15.0513 30.7411
234 78 2 -4.36014 -3.35721 1.4456 -8.61006 5.90676 -3.93058
455 152 2 -6.52256 -5.84346 -2.52147 2.3779 -1.13628 11.5032
615 205 2 -4.47034 -0.860348 -2.14973 8.14942 7.14307 -18.0342
613 205 1 -4.75132 -0.933731 -1.19 1.05384 -1.31881 29.0368
232 78 1 -3.62883 -3.23747 0.734837 21.4144 15.0719 -32.2974
420 140 2 -1.89167 -2.68929 1.13773 33.0497 4.3762 2.84163
512 171 2 -5.50264 -4.80438 1.85527 0.147515 -16.6847 -6.09525
511 171 1 -5.4904 -4.01179 2.47764 19.6204 8.47458 31.3024
418 140 1 -0.898472 -2.40478 1.38711 -45.0809 -17.0104 -7.41865
419 140 2 -0.781113 -1.41117 1.21106 5.03267 6.53258 -7.81366
310 104 1 -4.57578 -6.80687 0.927993 -19.361 -4.57952 18.2118
311 104 2 -3.71343 -6.61707 0.450444 11.4618 4.17321 -10.5345
42 14 2 -5.35467 -6.92592 2.80084 2.72116 -0.26911 -26.4347
66 22 2 -2.35984 -1.72781 2.95752 19.5936 8.16899 -2.46985
529 177 1 -6.61554 -5.39816 -0.616442 -16.7864 -26.1814 0.856783
530 177 2 -6.6351 -4.44475 -0.265037 -12.0045 4.14312 1.90755
297 99 2 -6.6352 -3.00453 1.64584 19.6653 -13.8736 12.4473
300 100 2 -0.322404 -6.6576 -2.3825 -7.8663 -5.4833 0.468679
614 205 2 -4.21461 -0.322267 -0.552411 -2.75347 -2.50997 -12.5895
312 104 2 -5.35403 -6.766 0.256143 3.3121 5.80007 -1.86326
12 4 2 -0.100469 -0.40513 -1.07455 -22.3609 -14.4271 -28.8165
217 73 1 -5.10834 -1.06061 1.80091 27.6827 20.3308 15.5555
218 73 2 -6.01899 -0.758464 2.10181 -12.6207 5.9839 3.15945
219 73 2 -4.35391 -0.474947 2.22963 -23.3491 -14.8327 -18.9563
134 45 2 0.411091 -0.915639 -3.12769 -21.1218 5.9388 24.7113
17 6 2 5.64593 -6.6654 -2.71462 -6.02983 9.37747 -33.7583
16 6 1 5.88886 -6.82302 -1.76955 3.39364 -6.32732 31.9488
340 114 1 0.987978 -2.80169 -3.2328 -2.1146 14.4798 37.8309
428 143 2 0.585523 -3.46117 2.3456 -8.72164 6.87465 4.29873
341 114 2 1.29713 -2.9261 -2.22563 -7.12658 3.00725 -28.834
258 86 2 1.10055 -2.95347 0.0736437 -0.693206 1.79891 -4.52437
10 4 1 0.286027 -0.186123 -0.17807 9.10397 1.26701 29.0685
294 98 2 4.44508 -2.06167 -1.71004 -6.85944 4.18472 -10.4837
292 98 1 4.10007 -1.57596 -2.56329 -9.88387 23.4364 55.3504
531 177 2 7.00552 -5.88789 -0.670614 26.2425 21.2464 -1.66672
623 208 2 1.59203 -6.26769 -0.457216 1.6133 2.13344 -22.9584
296 99 2 6.76564 -1.95351 1.27072 0.870468 -9.05115 -0.680144
295 99 1 7.03164 -2.96038 1.18503 -24.7548 16.5596 -15.5858
417 139 2 5.31104 -5.84239 2.82544 -0.702282 1.81087 -16.1154
622 208 1 1.22838 -5.81851 -1.33638 -0.531516 -13.6655 12.8132
624 208 2 1.18819 -4.83551 -1.04896 5.08305 9.30183 -5.79773
257 86 2 2.70112 -2.84571 -0.392567 -17.2834 -15.2164 -10.2055
256 86 1 1.77706 -3.2945 -0.616158 12.233 18.1285 11.2431
5 2 2 3.67761 -2.06837 0.726279 15.1032 4.78711 0.595337
124 42 1 6.33402 -0.475456 1.4902 5.03524 -7.46022 -10.5706
435 145 2 5.53378 -4.50729 1.17453 -8.68593 -3.43997 -7.44712
433 145 1 5.02727 -5.40655 1.12554 21.6046 0.000119587 17.1692
434 145 2 4.22025 -5.40584 0.520976 -7.81723 5.50675 -6.14084
6 2 2 5.32152 -2.13252 0.446876 2.72754 -1.526 2.76637
4 2 1 4.42383 -2.47483 0.113891 -21.4371 0.19737 -5.97166
577 193 1 2.32672 -6.92034 0.842773 -26.1457 8.58647 -9.58408
579 193 2 1.34113 -7.1445 1.07353 7.4583 -3.37014 0.184054
339 113 2 3.87499 -0.068602 -1.77901 -11.938 -16.4282 0.465324
427 143 1 1.15155 -3.03415 3.08496 18.6571 -14.7064 4.13039
95 32 2 2.11811 -2.18252 2.15895 22.6403 22.0777 -4.82454
96 32 2 1.83404 -0.685917 1.68199 9.63682 -2.03536 -17.4108
94 32 1 2.61418 -1.35148 1.70617 -39.5225 -17.4369 19.2717
180 60 2 -2.91311 1.804 -3.21906 5.26879 7.36699 -10.3423
179 60 2 -1.42873 2.44972 -2.96284 14.1658 1.8356 8.73514
469 157 1 -0.0115921 4.94622 -1.30395 -20.4676 32.2356 9.80741
471 157 2 -0.641229 5.68246 -1.75056 25.0519 -20.6065 -0.390378
99 33 2 -4.09258 6.13634 1.77146 8.58965 -3.118 24.3785
97 33 1 -3.86558 5.50859 2.58423 -2.92923 3.13397 -20.9937
506 169 2 -7.09571 0.449635 -3.20972 27.6505 -12.7715 -8.62628
298 100 1 -0.929923 7.07825 -2.50572 -0.391293 -0.981675 0.859323
236 79 2 -6.0401 0.125925 -0.175032 0.590268 5.80621 -6.53519
235 79 1 -6.71063 0.911646 -0.225789 13.2065 24.1316 -11.4659
32 11 2 -5.67606 3.35688 1.58651 40.9408 -13.1958 22.6307
567 189 2 -5.26322 4.61463 0.00532027 -12.9633 -17.0183 -30.8128
565 189 1 -5.99241 3.94273 -0.35581 6.65863 4.74497 16.3137
648 216 2 -2.7279 5.51189 -0.959735 -4.33047 3.80877 -10.6147
20 7 2 -3.70071 2.03352 1.01199 -27.0909 22.4866 31.8438
646 216 1 -3.50662 5.2965 -0.352906 22.7247 -11.1275 32.6205
566 189 2 -6.23298 4.01297 -1.36084 6.06635 10.2126 15.4022
647 216 2 -3.00452 4.84287 0.45838 -18.618 4.67236 -23.9506
237 79 2 -6.2253 1.79255 -0.556781 -7.83519 -28.7596 18.423
19 7 1 -3.53555 1.60211 0.144036 22.9898 -26.6234 -23.57
21 7 2 -2.52159 1.67461 0.138393 -0.028723 -1.05785 -13.0912
26 9 2 -0.409967 5.52748 1.99674 -8.89004 -8.45397 9.75339
33 11 2 -4.35226 4.06867 2.40245 -9.69043 -6.08897 -1.61509
485 162 2 -3.44192 2.38546 3.0866 13.8935 -7.51188 0.565819
484 162 1 -2.57512 1.81481 3.22147 -18.7412 16.327 0.525817
486 162 2 -2.86038 0.829052 3.22033 6.95169 -7.72303 -1.286
31 11 1 -4.82077 3.15011 2.188 -28.7923 8.12011 -18.92
320 107 2 -1.44365 3.28354 1.76421 2.86057 -2.61404 -3.47931
321 107 2 -0.698536 3.87134 0.307862 -6.69649 -7.51501 3.09035
319 107 1 -1.56345 3.73201 0.852146 5.48899 6.13567 4.63016
18 6 2 5.20423 7.11295 -1.35139 -2.3517 -1.82914 0.831333
588 196 2 1.14615 4.74989 -2.49155 -3.66929 -7.24383 -4.17217
470 157 2 0.26096 5.43735 -0.445938 5.17551 -7.69928 -4.02391
11 4 2 0.962105 0.499767 -0.486942 10.6584 13.2949 11.624
125 42 2 6.68393 0.0567955 0.673122 5.64786 -4.71753 0.869833
450 150 2 6.7896 1.44868 -1.31543 8.91353 8.63055 8.3917
539 180 2 5.59531 4.93836 -2.01868 10.5979 3.79056 -5.14765
538 180 1 6.52767 4.55615 -2.2835 -0.156962 -12.8647 -1.58398
540 180 2 7.125 5.11512 -2.93167 -10.3424 6.53093 11.1568
27 9 2 0.714007 6.59167 2.7203 -11.7831 -3.06315 6.25952
120 40 2 6.17495 5.34184 0.0963476 -0.0510569 -7.81826 2.23164
119 40 2 6.77663 4.1214 1.0151 16.104 -15.3516 -2.02427
328 110 1 3.81534 5.33665 2.36883 11.1726 -1.97326 -17.2093
329 110 2 3.17521 4.51305 2.30014 7.747 3.70233 -4.84085
448 150 1 6.3004 1.88102 -2.11081 -21.0809 12.7091 -18.4599
449 150 2 6.27679 2.94219 -2.14069 11.8614 -23.1023 9.44678
330 110 2 4.6479 5.20842 1.72179 -19.3178 -4.01785 18.9026
118 40 1 5.98251 4.70962 0.878897 -17.4098 24.9348 -0.974162
126 42 2 6.03907 0.312277 2.06221 -6.61291 14.4891 14.0809
152 51 2 3.61551 5.21798 -0.443814 -4.29234 -1.92145 11.4282
151 51 1 4.08967 5.26981 -1.33175 2.02041 6.67638 -20.1249
153 51 2 3.45049 4.96948 -2.07476 -1.52752 -0.752252 2.27212
578 193 2 2.85057 7.10786 1.50909 20.6095 -10.7377 12.6609
337 113 1 3.94557 0.597073 -1.00423 12.353 13.9613 -8.06318
338 113 2 4.90038 0.911527 -1.19517 -3.59169 9.96702 8.53237
138 46 2 1.33703 2.06103 -1.73551 13.0656 6.3702 19.1889
136 46 1 1.69667 2.18276 -0.768171 -8.1594 -3.47175 -8.22509
137 46 2 2.65473 1.81069 -0.655548 0.604572 -5.70334 -10.1599
158 53 2 2.05028 2.58386 2.84903 6.70126 9.81521 -29.8522
157 53 1 2.35554 3.15028 2.01449 -17.2574 -23.5095 10.4891
159 53 2 2.04234 2.70149 1.12571 5.29474 9.04309 15.2404
25 9 1 0.220673 6.29592 1.86017 13.0383 11.3829 -15.5835
224 75 2 2.1373 0.106441 3.00205 3.22171 5.87078 11.0273
253 85 1 5.87651 1.8783 2.69657 8.69181 -18.5256 -19.5602
255 85 2 4.90051 1.96306 2.91065 -10.9795 9.4119 7.11613
513 171 2 -4.94182 -4.19342 3.33885 -11.4271 -1.53179 -15.3651
410 137 2 -1.00687 -6.96136 4.85936 -9.05452 -10.4996 -2.58494
40 14 1 -5.88587 -6.97201 3.64958 19.4681 -1.63671 37.6073
41 14 2 -6.87576 -6.86858 3.57072 -22.6142 4.06185 -10.5977
599 200 2 -3.60238 -3.6333 6.47479 2.24236 6.95974 1.55005
600 200 2 -3.51143 -5.13302 5.91556 7.82877 15.8844 -12.3796
598 200 1 -3.27542 -4.15422 5.65579 -8.60882 -20.6771 13.1834
238 80 1 -3.17667 -1.19239 9.70359 -17.8365 4.30245 10.0902
240 80 2 -2.54356 -0.458829 9.4899 23.7153 14.5705 -11.0468
245 82 2 -3.16567 -5.98902 9.0708 -9.25227 -6.85476 -11.0876
261 87 2 -4.22452 -3.93082 8.81681 2.97167 -0.963126 5.3159
259 87 1 -4.12678 -3.09532 8.24564 6.00919 7.59808 -15.2179
260 87 2 -3.5977 -2.32046 8.74409 -14.5833 -15.8162 -0.966989
23 8 2 -3.27798 -7.27301 5.4664 -28.0806 1.10333 4.88893
527 176 2 -0.652743 -2.15779 5.93245 17.5996 -17.1271 -22.2043
528 176 2 -1.27664 -3.36206 5.12102 -16.1218 -18.7496 -6.20605
526 176 1 -0.423017 -2.83649 5.17152 -8.1864 30.9195 34.9748
92 31 2 -2.22145 -0.128205 6.16124 -20.6332 1.49811 10.2032
24 8 2 -4.99529 -7.06815 5.10447 11.7064 0.0214898 0.0958422
65 22 2 -3.69763 -1.28417 3.47268 -18.6913 3.23003 12.5743
244 82 1 -2.28478 -6.07326 9.57878 -3.03027 -3.96422 -16.8659
22 8 1 -4.27999 -7.21729 5.85118 3.14421 -3.75494 -16.846
398 133 2 -6.86414 -1.71371 7.14136 -0.977387 -1.17518 -0.596452
397 133 1 -6.7459 -2.47093 7.80894 16.246 -2.39526 -5.96013
399 133 2 -5.76104 -2.82028 7.7767 -12.3179 6.76794 5.70717
93 31 2 -3.85405 -0.540054 6.21271 -18.8056 -10.3883 -13.6894
64 22 1 -2.79044 -0.874031 3.31426 -3.89047 -15.444 -3.51373
374 125 2 -6.75204 -1.32872 9.05191 -7.93866 -24.4644 -14.0767
550 184 1 -5.85818 -1.18104 5.1159 27.0686 -24.4972 -3.65867
552 184 2 -6.23522 -2.1164 5.04159 2.15446 -7.25675 -4.95785
91 31 1 -3.10003 -0.123626 6.71855 36.3489 12.1016 3.41119
303 101 2 -1.17971 -6.97693 8.66092 0.441537 -3.44575 7.07901
551 184 2 -6.62616 -0.593253 5.34441 -24.7106 35.505 6.4672
106 36 1 -4.6688 -6.04152 8.11529 10.5431 3.39483 17.8322
107 36 2 -4.43625 -6.80638 7.44527 -7.67261 10.0166 -2.92313
108 36 2 -5.59343 -5.67797 7.91047 -4.38639 -3.5185 -2.17771
210 70 2 1.10746 -7.22533 5.22004 5.91838 -5.02115 3.74626
415 139 1 5.37076 -6.01252 3.82868 13.6559 -14.4563 9.8973
209 70 2 1.23572 -6.0784 3.99388 -2.20271 -13.0744 4.60184
208 70 1 0.870822 -7.01077 4.23558 -0.224901 18.6101 -8.47958
416 139 2 4.58911 -5.47808 4.21564 -6.39572 13.099 -1.85972
495 165 2 1.32571 -2.63751 8.64141 31.724 -13.3135 -19.55
429 143 2 0.622395 -3.03662 3.98332 -5.76796 5.41823 -4.74358
493 165 1 0.666133 -1.94176 8.86541 -42.4741 34.518 13.7798
100 34 1 5.60324 -1.83204 4.21266 -17.5823 -19.7997 31.9084
101 34 2 5.83925 -1.29641 5.06498 1.62229 5.05048 -21.4069
102 34 2 5.9652 -1.59513 3.3035 9.90723 15.9187 -7.90673
494 165 2 0.656144 -0.996632 8.41254 9.3291 -19.5051 0.0349091
390 130 2 3.5468 -4.18716 8.56936 1.12633 9.50086 -3.14088
110 37 2 4.42082 -3.09529 4.42478 -32.9382 -42.7432 -13.2206
389 130 2 4.8558 -3.90973 7.66956 -0.876496 8.02387 -4.68371
111 37 2 2.76561 -3.58424 4.17082 26.6576 -6.68644 -2.02861
109 37 1 3.7452 -3.93312 4.2836 4.51358 51.923 13.3554
388 130 1 3.94397 -3.50026 7.89341 -1.10926 -15.8359 7.80331
207 69 2 4.0668 -1.78324 7.43486 12.0935 -2.15411 6.54717
206 69 2 4.6017 -0.353284 8.19006 -3.63848 3.03919 5.39324
205 69 1 4.61294 -0.906631 7.33612 -4.28445 -1.70119 -16.0493
78 26 2 4.86375 -5.96228 6.82353 -46.4136 -11.6926 5.06445
77 26 2 5.92295 -5.53781 5.61218 -5.55341 -8.10732 19.417
76 26 1 5.78591 -5.73003 6.63054 51.3831 15.468 -22.015
98 33 2 -3.3912 5.92834 3.38028 1.88839 10.6116 -2.54279
183 61 2 -1.57076 1.12154 4.5852 21.203 -0.659268 3.25243
181 61 1 -0.679478 0.909059 5.10268 -13.1676 -14.5491 -19.8033
409 137 1 -1.91477 7.1336 5.03521 23.1645 0.170373 2.06249
411 137 2 -1.78298 6.40763 5.78451 -0.985903 5.07442 -9.27913
155 52 2 -6.95562 5.82451 6.81984 2.46669 -2.41938 -5.62989
164 55 2 -0.487449 1.02114 8.23389 -1.79952 -0.0287491 12.328
48 16 2 -6.56696 5.63576 9.43105 -4.10379 3.51332 4.07987
87 29 2 -6.73021 3.57167 5.31063 -6.485 -2.0222 -1.8116
71 24 2 -3.78451 0.952094 7.96374 -6.41044 7.35588 7.96379
149 50 2 -1.17012 4.49765 6.48243 -9.62788 -6.98818 10.1696
302 101 2 -0.639138 6.12099 7.93404 -11.8665 4.4516 2.61924
301 101 1 -0.430765 6.86669 8.61983 19.3858 -0.259281 -0.425348
148 50 1 -1.75171 5.26263 6.91177 9.01309 25.5969 -17.1358
562 188 1 -5.62163 4.81869 5.84627 -14.2378 -15.427 -6.75046
564 188 2 -5.11527 5.63043 5.50452 9.7419 6.42953 7.7164
150 50 2 -2.27631 5.01842 7.73635 -7.34561 -15.0431 14.4495
563 188 2 -5.3551 4.49687 6.77917 4.67085 4.47668 6.66799
70 24 1 -4.08836 1.70805 8.62063 -8.36111 -17.7265 24.9434
168 56 2 -5.26346 2.87442 8.60114 6.47997 10.0059 -4.44764
72 24 2 -4.57082 1.37457 9.50131 15.2191 1.79903 -24.7604
154 52 1 -7.19199 6.33484 7.66867 9.85464 -10.2412 20.3466
88 30 1 -0.403932 3.33551 5.95804 9.09472 25.8057 5.30323
89 30 2 -0.669142 2.40661 5.65762 -0.875354 -20.6263 -11.003