ITEM: TIMESTEP
35000
ITEM: NUMBER OF ATOMS
648
ITEM: BOX BOUNDS pp pp pp
-7.2343193494860811e+00 7.2343193494860811e+00
-7.2343193494860811e+00 7.2343193494860811e+00
-1.6076265221080387e+01 1.6076265221080387e+01
ITEM: ATOMS id mol type x y z fx fy fz
637 213 1 -3.99968 -2.99587 -15.8027 -29.7355 -4.55647 -36.1206
267 89 2 -5.05365 -0.958275 -14.4216 7.76509 13.7529 5.41105
265 89 1 -5.23016 -0.944427 -13.4002 -22.6754 -13.8446 15.7021
480 160 2 -1.96241 -6.36449 -13.4892 0.215077 11.0685 13.3804
607 203 1 -1.65867 -3.87988 -15.0221 44.1502 -26.8347 20.08
377 126 2 -1.37356 -4.66386 -13.4145 0.614432 19.0545 -3.45236
331 111 1 -6.0419 -5.00984 -12.6533 1.79277 3.28226 -14.3135
609 203 2 -1.3296 -4.21079 -15.9361 -3.43066 6.38998 -0.183784
608 203 2 -2.54986 -3.44758 -15.1359 -36.0738 14.4841 -10.6326
333 111 2 -5.90423 -5.382 -11.6874 2.06369 -5.59673 -1.62337
206 69 2 -5.26065 -5.42112 -14.6023 -0.624512 4.6893 -1.96388
394 132 1 -0.984851 -0.860517 -12.7247 -5.91912 19.7994 -19.9588
395 132 2 -0.734856 -0.386472 -13.6048 4.80574 -6.87282 9.49004
376 126 1 -1.36647 -5.1191 -12.4929 -8.56635 -17.6822 -5.9291
378 126 2 -1.05986 -4.52466 -11.7237 5.29498 17.6932 -1.03838
332 111 2 -5.91089 -4.02185 -12.4943 -1.14076 11.6947 -12.0932
266 89 2 -4.50795 -0.557751 -12.7918 8.31919 4.33712 -8.92453
205 69 1 -5.38362 -5.84716 -15.5266 -19.7303 11.544 -3.19365
396 132 2 -1.91923 -0.512078 -12.5303 -1.47576 -4.5943 8.94289
625 209 1 -5.72837 -5.64067 -10.2749 10.3657 19.6124 22.3213
626 209 2 -5.016 -5.15442 -9.66448 -15.0559 -15.8102 -6.44015
611 204 2 -6.73234 -1.72611 -13.0225 8.47214 0.279551 -4.50836
524 175 2 -0.585871 -2.10778 -11.8135 1.72868 13.5866 -3.52667
523 175 1 -0.214654 -2.85243 -11.2071 9.90554 -27.2839 22.7741
383 128 2 -6.35256 -6.83084 -14.098 -22.1861 -3.17279 2.8354
14 5 2 -6.98298 -4.17189 -9.938 -10.3472 13.9473 -0.457873
207 69 2 -6.14756 -5.33107 -16.0415 21.3025 -10.5959 7.72753
432 144 2 -3.18803 -2.83103 -11.8332 12.7231 -23.9967 -28.5648
431 144 2 -3.49875 -2.91481 -10.1771 4.25857 -4.98268 -0.696442
430 144 1 -3.42206 -2.34107 -11.0184 -21.3378 27.732 31.7099
627 209 2 -6.10133 -6.52272 -9.90384 7.78579 -7.0977 13.3626
368 123 2 -5.26825 -1.40332 -10.0579 18.6306 10.7878 4.33175
243 81 2 0.0482076 -6.10347 -12.6445 -23.4889 9.80105 -1.78616
612 204 2 6.24226 -1.67689 -12.2956 4.26707 4.99777 -2.69868
610 204 1 6.94666 -2.30303 -12.694 -16.506 -3.5907 11.8115
456 152 2 3.22014 -4.15058 -15.0087 19.5569 -24.869 3.20234
454 152 1 3.88833 -4.94459 -15.1902 -2.77752 12.7999 6.06275
15 5 2 6.83506 -3.09079 -11.0643 5.78526 -1.03035 13.7609
146 49 2 5.92253 -5.64608 -12.463 -6.69097 15.5942 -14.2508
147 49 2 5.74877 -4.03458 -12.9797 4.55379 -7.14435 0.473141
622 208 1 3.82616 -3.14444 -10.0448 -14.1807 -22.2927 -14.3664
525 175 2 0.191407 -2.51907 -10.325 -8.7977 4.10072 -14.7037
13 5 1 6.89634 -3.32231 -10.0532 12.829 -11.2647 -21.5626
624 208 2 3.16667 -3.62011 -10.6647 -2.89537 5.91172 5.26997
242 81 2 1.43367 -6.96899 -13.1208 -14.3256 10.9201 14.8797
335 112 2 5.22173 -0.555141 -10.0741 -21.8508 -19.5785 12.5576
241 81 1 0.881997 -6.56475 -12.3194 51.7614 -27.5541 -14.9659
145 49 1 5.26468 -4.92798 -12.8232 11.5448 -5.82849 12.0782
455 152 2 4.61052 -5.06904 -14.4351 -22.358 7.86539 -7.90368
558 186 2 4.12823 -6.39032 -11.1617 13.9433 13.7436 -15.4957
623 208 2 4.71946 -3.29393 -10.493 15.7964 1.71921 8.71215
343 115 1 2.30073 -0.895142 -12.137 20.544 22.5699 -27.0035
557 186 2 2.49383 -6.8329 -11.4471 9.78234 0.0432789 2.41538
556 186 1 3.35572 -6.94704 -10.8796 -33.3022 -7.71447 11.4566
344 115 2 1.44734 -0.366613 -12.0151 -13.6475 -2.96523 9.18638
263 88 2 1.94304 -2.69976 -13.4024 -12.4205 -7.82923 1.64643
262 88 1 1.52923 -3.50921 -13.891 19.5384 3.38218 -5.75102
264 88 2 1.253 -4.27415 -13.2792 -1.89728 7.99856 4.03346
345 115 2 2.81697 -0.269125 -12.8214 -4.5997 -19.1859 14.2335
2 1 2 3.17119 -6.85245 -15.037 5.16277 -5.79569 3.69847
322 108 1 4.61702 -1.543 -15.423 -8.11732 -2.11966 4.75426
323 108 2 4.97352 -1.79641 -14.4961 3.9413 1.08092 -16.3468
9 3 2 2.87079 -0.497214 -10.4438 -5.79922 -8.86118 -7.95943
570 190 2 1.31549 -6.22926 -16.0268 -12.2644 1.88006 -7.10938
478 160 1 -2.12595 7.1738 -13.8605 2.7238 -21.4305 -21.2481
382 128 1 -7.1834 7.08779 -13.7861 16.0282 3.65013 -13.9857
384 128 2 -6.92304 6.6493 -12.9189 -0.967696 -5.5053 11.2435
479 160 2 -2.95392 6.74114 -13.4621 -5.47503 -1.95758 5.94033
521 174 2 -6.8648 4.43053 -14.9685 12.4351 12.6842 -15.1716
520 174 1 -6.46966 5.12496 -15.6627 1.037 -24.8027 -0.711765
620 207 2 -3.01668 1.41868 -11.4249 -14.9136 -4.51261 8.52624
83 28 2 -6.21065 5.59118 -10.5713 1.66033 -11.2983 -13.2344
82 28 1 -6.24351 4.85779 -11.3252 2.64266 17.3968 3.56228
84 28 2 -5.60949 5.04569 -12.1124 9.75371 -0.807318 3.29043
619 207 1 -3.87818 1.40838 -11.9979 26.3949 2.00306 -18.3168
621 207 2 -3.67166 2.11446 -12.7223 -5.288 -5.36785 6.90704
317 106 2 -1.55348 4.74996 -10.8391 10.5411 8.54454 -14.2056
560 187 2 -3.414 4.57314 -13.4288 -8.28332 -4.13882 0.91197
226 76 1 -2.43085 3.2697 -13.6074 22.6724 -1.99608 -20.3865
227 76 2 -1.87358 2.56738 -14.1508 -6.20702 10.7892 14.6949
561 187 2 -4.9003 5.19966 -13.9894 -3.30291 -5.85574 -16.4686
559 187 1 -4.22606 5.19093 -13.2403 0.293289 15.0377 12.7687
43 15 1 -7.05273 3.28266 -13.9376 7.91343 -5.66702 -0.867938
44 15 2 -6.92785 2.52395 -13.2308 -7.40576 7.15836 -1.90334
316 106 1 -2.00189 5.44699 -10.2458 -17.091 5.20995 21.6546
318 106 2 -1.71019 6.4082 -10.3775 8.1206 -0.614354 -9.96685
132 44 2 -3.86155 2.98107 -14.8307 -13.9895 1.80635 -1.48064
228 76 2 -1.69327 3.96702 -13.3289 -10.4162 -13.3119 4.78411
355 119 1 -6.76274 1.33673 -12.0608 -13.0819 -38.4796 -2.71818
175 59 1 -5.71113 2.58595 -10.1114 5.97179 -22.3381 40.8731
177 59 2 -5.72225 3.42112 -10.696 -7.63282 7.01049 -13.451
176 59 2 -5.96178 1.75522 -10.7131 6.82541 32.2219 4.57719
357 119 2 -6.04073 0.83757 -12.5851 5.59262 1.60659 -3.53179
477 159 2 -0.0989913 1.40473 -10.4304 2.416 -12.0498 9.3652
131 44 2 -5.55962 3.06031 -15.2649 -5.78448 9.54942 11.8746
130 44 1 -4.64522 2.64654 -15.4175 23.2192 -5.89485 -11.1376
356 119 2 -7.19462 0.620851 -11.4242 -4.72067 20.158 -14.2747
643 215 1 -0.50275 4.77634 -12.4219 -21.4991 -12.4588 5.53763
644 215 2 -0.125193 5.65612 -12.71 8.06629 18.697 -5.23818
469 157 1 -2.19167 1.68836 -9.78048 9.77956 -11.6607 32.7341
470 157 2 -2.7327 2.54419 -9.70145 -6.14334 8.09851 1.18057
385 129 1 -4.98844 0.075326 -15.8682 1.27303 -31.2169 -28.5418
387 129 2 -4.8417 1.07732 -15.8219 1.65692 22.7641 11.6077
248 83 2 -1.77987 6.32638 -15.5089 3.79035 3.22689 -14.6114
522 174 2 -6.67223 6.05012 -15.333 -7.35277 19.0633 7.93065
392 131 2 -0.332444 1.93778 -15.3523 7.51518 2.05346 4.10599
391 131 1 -0.190336 1.68907 -14.3452 11.0549 -19.6087 6.18675
617 206 2 3.76345 1.72676 -13.3672 -3.90654 -5.85474 17.5279
616 206 1 3.48831 0.859356 -13.8359 -0.636759 7.49918 7.13041
618 206 2 3.92393 1.05093 -14.7416 2.69639 -9.508 -10.8326
334 112 1 5.87562 0.0444535 -10.5183 20.574 10.4391 -10.49
393 131 2 0.803861 1.46985 -14.1066 -25.5685 11.3305 -11.6584
336 112 2 5.70953 0.964489 -10.1166 1.57256 5.92542 -0.566783
45 15 2 6.43897 3.41016 -14.2041 -9.10494 -4.29427 6.83965
362 121 2 5.68189 5.86678 -14.1275 -7.18587 -10.0719 8.47046
201 67 2 1.56283 3.25647 -13.7053 7.03335 1.92835 -13.0469
363 121 2 4.85938 4.86456 -12.9965 1.7984 4.29546 8.67933
438 146 2 5.5432 5.326 -9.9744 -0.181137 4.70644 7.52549
436 146 1 5.6814 4.54334 -10.6132 -50.1353 -7.51991 -5.76106
361 121 1 5.10289 5.02349 -13.9639 6.26273 8.69561 -15.7106
476 159 2 1.09313 2.13191 -11.1623 11.8567 -20.8154 16.3037
645 215 2 0.25561 4.1011 -12.2692 12.0356 -4.70804 -7.42688
307 103 1 3.8882 2.70109 -11.7317 6.67164 -32.1461 23.8279
308 103 2 3.9694 2.1097 -10.8524 -7.89055 24.778 -26.2461
309 103 2 4.40862 3.53952 -11.4999 12.8477 11.4951 10.763
199 67 1 1.57616 3.16855 -12.6849 18.2568 -5.67387 32.3674
200 67 2 2.58235 2.99954 -12.3458 -30.7276 4.71082 -8.46078
475 159 1 0.926273 1.39111 -10.4383 -20.7993 34.2386 -29.6961
358 120 1 2.24719 3.32561 -15.2804 15.8971 -4.80512 -13.9692
1 1 1 2.59818 6.96682 -14.4857 -16.5816 9.65031 5.99018
3 1 2 2.87422 5.98486 -14.519 8.11611 0.145295 -5.59157
437 146 2 6.61694 4.4045 -10.9295 36.7174 2.10944 -6.20306
359 120 2 3.24134 3.01647 -15.2374 -11.1712 6.56366 1.5483
514 172 1 4.45357 2.0063 -16.0341 15.0403 -1.81727 2.74391
554 185 2 -0.98403 -4.29295 -7.80697 -2.20393 4.87556 -0.429066
194 65 2 -3.23547 -4.66774 -8.27476 -0.540201 9.83613 0.0607157
193 65 1 -4.0619 -4.16134 -8.60406 -15.0101 3.78433 -0.955929
195 65 2 -4.54286 -3.61606 -7.85871 15.2499 -12.7841 -10.1089
349 117 1 -1.61717 -2.63875 -7.32742 -7.7128 1.71962 -11.0658
553 185 1 -1.27537 -5.27711 -7.85509 -24.6109 -12.2964 18.448
351 117 2 -2.05146 -1.75647 -7.57825 -1.87629 6.42205 -3.06796
600 200 2 -2.65103 -1.44026 -3.67389 9.90103 -3.17228 -5.85409
555 185 2 -2.06262 -5.37689 -7.17927 21.3448 -0.95542 -10.1257
353 118 2 -6.48032 -1.67441 -6.11552 9.98382 2.34191 -3.71388
350 117 2 -0.88871 -2.44059 -6.65196 12.5142 -4.7755 10.968
280 94 1 -5.1379 -4.42534 -5.85146 -8.01701 6.86625 -22.8127
352 118 1 -6.89573 -2.54406 -5.80709 -21.3565 2.59053 2.51618
281 94 2 -4.38394 -5.03693 -6.15036 6.98742 -14.7077 -0.478475
282 94 2 -5.0273 -4.23616 -4.87315 4.22304 -1.39957 28.0508
636 212 2 -1.08132 -4.37968 -5.10652 8.16295 -10.9531 -5.29946
354 118 2 -6.27882 -3.37541 -5.95699 4.79801 7.96956 3.91242
599 200 2 -1.81177 -2.9056 -3.33218 -11.8332 2.12536 -11.8671
367 123 1 -5.74162 -1.18057 -9.18258 -17.8672 -34.9632 -22.7541
369 123 2 -6.57116 -1.7798 -9.35221 2.65264 9.76961 15.4413
634 212 1 -1.9833 -4.24702 -4.66354 -13.7654 9.53572 13.112
635 212 2 -2.51701 -5.06477 -4.36739 9.92585 -2.37848 -7.86438
420 140 2 -4.38899 -7.17315 -6.11491 14.7902 10.8378 -3.64785
418 140 1 -3.55352 -6.60149 -6.44684 -0.321782 6.1514 -3.02683
419 140 2 -3.188 -7.08682 -7.25928 2.96139 -2.095 -1.07648
364 122 1 -0.30585 -6.70177 -5.42206 -4.86242 7.36471 -22.1864
30 10 2 -5.70228 -0.00316338 -8.06531 -5.0045 -5.79634 -10.0956
365 122 2 -0.400662 -6.36861 -6.41404 6.45485 -8.9065 24.1422
38 13 2 2.78841 -2.84195 -8.46803 1.29565 -0.0401623 17.7284
88 30 1 0.63459 -3.09807 -5.74273 42.6817 11.7056 -10.4353
153 51 2 4.29948 -4.75753 -6.37128 11.5915 5.65578 4.42142
89 30 2 1.46258 -2.87855 -6.37483 -28.5034 -9.05248 14.342
7 3 1 3.21778 -0.692946 -9.50113 8.36552 22.5097 18.6372
8 3 2 3.46025 -1.68853 -9.35416 -0.244405 5.92523 -15.3539
37 13 1 2.91002 -2.70654 -7.44786 12.2214 -18.3575 -5.64651
39 13 2 3.90084 -3.00715 -7.27601 -15.3426 10.9171 -2.58349
90 30 2 1.01263 -3.04032 -4.78095 -9.09873 -3.97951 -4.91605
151 51 1 3.73941 -5.26072 -5.68653 -4.33922 0.754004 -2.25202
120 40 2 7.18954 -6.90269 -6.08584 -11.5754 1.07916 -7.06104
118 40 1 6.25468 -6.67539 -6.46618 13.9705 8.55001 5.35682
152 51 2 2.86216 -5.3035 -6.18707 -15.2174 -5.53197 1.85339
119 40 2 5.60348 -6.61991 -5.67385 -0.825345 -7.16448 -5.74599
538 180 1 5.52829 -3.5931 -7.20838 -3.10757 -15.9257 14.0835
540 180 2 5.95321 -4.51025 -7.08337 -2.28002 -7.41424 -9.75392
539 180 2 6.22805 -3.0376 -6.70601 1.55868 14.1544 0.872381
198 66 2 0.687587 -0.015568 -3.81531 7.01074 13.6727 -16.8528
196 66 1 1.3152 -0.240155 -4.61741 -17.7511 -4.03194 23.0025
197 66 2 1.52124 -1.21006 -4.40993 8.22349 -6.80422 -2.30365
285 95 2 1.98978 -0.158831 -7.85127 5.52226 12.0286 29.9496
80 27 2 2.24077 -6.03213 -9.31979 3.83716 -4.02227 -5.17601
116 39 2 5.41097 -7.2041 -8.09204 10.8581 9.02599 26.834
79 27 1 1.54441 -6.12625 -8.59146 -5.00079 -1.00076 -0.601012
81 27 2 0.616774 -6.20811 -9.0205 4.75323 2.913 8.11729
379 127 1 5.88163 -0.975663 -4.03116 6.03918 -7.21606 -6.39231
381 127 2 6.44814 -1.62662 -4.59714 -0.56863 -2.27908 8.48486
492 164 2 3.89374 -5.02515 -3.77519 -3.64663 -2.61959 -16.1523
53 18 2 5.86326 -5.9236 -3.34077 8.4885 -8.39286 12.3894
157 53 1 -2.54336 0.159238 -4.65145 2.80551 -2.13246 8.4247
57 19 2 -1.63571 7.18621 -4.25835 15.1041 -0.809685 -19.6629
648 216 2 -5.84527 0.832511 -5.86286 16.0649 17.6676 10.3543
646 216 1 -5.4236 1.05415 -4.93213 -16.6328 -31.7421 1.99128
532 178 1 -6.56194 6.42581 -9.22505 3.47607 16.1356 -13.017
647 216 2 -4.96599 1.9415 -4.84236 2.8745 17.2997 -11.3446
133 45 1 -3.15461 3.05541 -3.2914 -33.6395 -0.613634 2.71093
158 53 2 -1.70468 0.500697 -4.16088 0.834632 1.2117 2.6615
471 157 2 -2.17761 1.2925 -8.79843 -0.415615 2.97255 -32.4709
180 60 2 -3.07981 4.80896 -9.26663 2.73751 4.49951 -15.656
178 60 1 -3.63219 4.12043 -8.74 -9.56018 -17.9097 22.5526
179 60 2 -4.62232 3.9983 -8.99453 16.8873 5.52807 -6.02963
58 20 1 -1.83597 0.408995 -7.22992 -9.0564 -11.1933 1.23599
59 20 2 -0.986701 0.972599 -7.27346 0.993641 -1.12844 11.8828
60 20 2 -2.12921 0.0974629 -6.26401 10.3307 17.485 -16.4991
534 178 2 -6.36619 5.73806 -8.50676 2.41768 -14.0411 13.5722
370 124 1 -6.23164 4.17637 -7.58174 9.2634 28.5794 3.83119
135 45 2 -3.29624 3.35061 -4.25998 13.359 2.27638 -9.51474
372 124 2 -6.08636 3.51115 -8.34152 -12.0611 -12.8961 2.93989
535 179 1 -3.52208 4.08304 -5.87465 -6.21477 13.609 13.8455
536 179 2 -3.07548 4.05339 -6.79468 -4.32285 -3.63694 -5.08147
537 179 2 -3.93853 5.0166 -5.71984 9.25511 -13.9874 -1.51735
10 4 1 -6.57624 5.40687 -3.67003 -10.6 28.706 -1.18589
29 10 2 -5.53632 1.5709 -8.38185 -4.6478 -2.4669 0.676864
548 183 2 -5.39284 5.53244 -6.5905 -8.26925 11.9738 4.54249
549 183 2 -5.81646 5.7737 -5.02919 1.615 18.2269 -2.54081
547 183 1 -5.40191 6.27418 -5.85755 -10.1952 -41.6856 -3.08688
371 124 2 -6.76741 3.81899 -6.78147 -6.17836 -13.3101 -11.9494
28 10 1 -5.95979 0.927203 -7.69971 4.83174 13.72 11.2802
55 19 1 -1.96291 6.71652 -3.42906 -29.9678 32.9919 33.2033
159 53 2 -3.29571 0.818954 -4.43414 -0.190947 -3.26478 -2.45762
503 168 2 -6.05089 0.403643 -3.32423 -13.4037 6.9279 20.0915
12 4 2 -7.07173 6.30221 -3.46216 7.69204 -4.15336 -0.917318
474 158 2 2.1015 5.59139 -7.07398 -1.94705 1.27368 2.70883
473 158 2 1.153 4.37073 -6.52186 0.93503 2.20205 0.363361
472 158 1 1.59304 5.2653 -6.25321 -0.470049 -4.55667 -2.04816
117 39 2 4.11882 6.86344 -8.97219 -6.70002 -3.19736 -9.94473
533 178 2 6.89916 6.58454 -9.18444 -11.7068 0.867492 4.20857
115 39 1 5.10533 6.66522 -8.83716 7.90424 -8.20043 -14.7116
68 23 2 5.28529 0.23144 -4.60824 -17.128 13.3148 -10.3788
69 23 2 4.00016 0.368872 -5.6986 9.92733 20.1485 14.4086
283 95 1 2.16073 0.452518 -7.01246 -4.14854 -4.57025 -10.9482
284 95 2 1.67613 0.215109 -6.10342 9.0799 -5.00317 -18.0363
366 122 2 0.205677 6.88299 -5.37393 1.64834 -0.270411 -7.86648
457 153 1 4.03234 2.04965 -8.9796 -15.1928 -25.4351 -44.1835
459 153 2 3.73654 1.04935 -8.92818 2.35469 16.7352 13.3001
67 23 1 4.63794 0.935994 -5.08843 -6.48708 -20.942 -12.6783
11 4 2 7.1473 4.71529 -3.64076 -11.6885 -11.4346 -1.08604
458 153 2 4.53848 2.46028 -8.23159 14.1316 1.60355 27.9883
87 29 2 7.0445 1.62226 -7.13773 1.24377 -3.48928 -0.0499553
122 41 2 1.57708 2.12859 -7.35539 1.93669 -7.49929 3.09607
123 41 2 0.613761 2.56278 -8.58541 0.933056 -0.66776 -7.54913
121 41 1 0.821396 2.7704 -7.6165 -2.07646 8.78283 5.00011
330 110 2 3.8176 1.15601 -3.4077 4.09516 -3.99182 -25.7592
85 29 1 6.33177 2.25267 -6.74685 -11.7377 6.77589 4.2106
86 29 2 5.60616 1.76732 -6.18353 8.70059 -1.23264 -1.10121
229 77 1 5.53586 4.13132 -3.69461 -5.68871 -19.4802 -10.7864
231 77 2 5.25539 3.32875 -4.28021 4.84215 4.45312 7.86103
230 77 2 4.99299 4.92595 -4.02074 -1.25809 14.8582 -4.35991
257 86 2 3.43046 5.58374 -4.94467 9.59572 5.12601 -9.73495
258 86 2 3.62312 7.14545 -4.76816 7.66382 11.936 -4.81689
256 86 1 4.1646 6.30886 -4.9536 -23.3911 -18.9185 14.491
296 99 2 1.46945 3.99996 -3.36036 -3.0683 -4.82851 8.99747
598 200 1 -2.43636 -2.16845 -2.97427 -7.91162 5.74097 11.5929
56 19 2 -2.39575 -6.96665 -2.87036 12.3202 -33.6493 -5.62606
31 11 1 -2.91304 -2.42915 0.817258 44.2773 -0.904543 22.92
32 11 2 -3.07295 -2.04701 -0.103022 -21.5096 15.1844 -11.3282
33 11 2 -1.90841 -2.12891 1.03032 -31.3833 -11.2124 0.946452
373 125 1 -1.25746 -3.95512 -0.856381 21.5154 -12.5439 -10.4535
306 102 2 -3.65409 -1.52817 -1.97036 7.89615 0.376491 -6.03313
305 102 2 -4.81055 -0.350438 -1.59884 5.09789 -13.168 6.85504
304 102 1 -4.13927 -1.04669 -1.21168 -15.604 16.9164 1.32935
340 114 1 -4.7159 -4.22269 -2.91524 -4.52741 2.75897 -4.06905
341 114 2 -5.56354 -4.1904 -2.28505 14.2973 10.8262 -8.30591
261 87 2 -2.59018 -5.56856 2.00836 -11.8088 14.8598 -13.3624
16 6 1 -0.440717 -1.61289 1.41143 -29.6443 6.58911 -16.6502
575 192 2 -3.89995 -5.16595 -1.8733 2.82693 -3.08629 -11.4541
576 192 2 -3.80026 -6.04958 -0.574024 -8.03657 -9.87041 29.02
342 114 2 -4.15217 -3.36323 -3.02576 -11.6174 -5.67345 8.31499
574 192 1 -3.29937 -5.8712 -1.41691 12.6275 3.97918 -26.1507
17 6 2 -0.312645 -0.757407 0.851556 -1.53902 -3.76305 4.47887
100 34 1 -5.16805 -2.4731 2.92084 7.78442 -16.4319 24.55
102 34 2 -4.46479 -3.03025 2.43406 -2.29686 0.596405 -4.30714
232 78 1 -5.60581 -6.25693 0.611175 -6.54299 10.6528 7.49378
374 125 2 -1.52925 -4.88695 -1.21361 -6.78913 9.37158 8.35755
260 87 2 -3.15415 -4.08279 1.29315 6.60314 -7.54459 -2.75449
259 87 1 -3.32287 -5.09532 1.44248 8.37897 -2.45269 19.4837
233 78 2 -5.00041 -5.7528 1.29455 -0.550492 -12.9392 -13.903
4 2 1 -6.76805 -4.08673 -1.16144 -7.56653 13.723 -11.1
6 2 2 -6.57592 -4.36259 -0.200802 -0.190416 -5.49825 2.68347
375 125 2 -2.05854 -3.33571 -0.814632 -4.0661 -3.07669 1.28094
593 198 2 -4.74918 -0.399853 0.752729 -0.859579 2.01728 -12.4652
592 198 1 -5.31698 -0.229976 1.57774 8.72688 -6.80917 -3.96844
125 42 2 -6.84359 -5.81297 2.51396 3.34727 -0.965428 12.2022
594 198 2 -5.0843 -1.02167 2.20027 -13.7969 -7.43381 0.299769
499 167 1 1.18558 -2.6914 -3.03944 -7.32083 7.53243 -16.2055
18 6 2 0.406578 -1.8094 1.88853 33.3676 4.13025 14.123
462 154 2 3.13488 -2.35054 1.34428 -16.3608 15.4694 1.88824
398 133 2 0.586409 -4.03858 -0.725463 -14.0566 0.323986 -2.32915
404 135 2 0.567252 -3.56613 2.08409 5.89928 -10.6058 13.8515
403 135 1 1.08533 -3.90394 2.91209 -17.0046 -0.554455 -5.8703
380 127 2 5.63513 -1.31495 -3.10739 5.16384 -7.27384 1.58439
460 154 1 3.35888 -3.26429 0.965025 14.611 -21.4131 -12.5494
461 154 2 2.69774 -3.69615 0.295617 -4.01719 13.5935 4.00569
276 92 2 5.45515 -0.1181 1.15773 0.259225 2.14081 10.7556
496 166 1 4.38999 -5.72361 1.46141 -6.63727 0.768556 1.24289
497 166 2 4.86799 -6.12087 2.27682 1.29121 6.0785 9.10597
500 167 2 1.49159 -3.35517 -2.32211 2.9352 -6.4159 8.30077
490 164 1 4.49512 -4.97651 -2.95934 0.278668 23.5945 -8.41149
501 167 2 0.205701 -2.45567 -2.87616 4.10125 -0.730279 4.11891
491 164 2 4.52763 -3.97974 -2.69132 5.54801 -8.54449 7.33375
269 90 2 4.47523 -2.94429 -0.377069 -1.65513 -16.1469 4.76221
498 166 2 3.89377 -4.84139 1.68256 10.0443 -3.43398 -1.94439
268 90 1 5.07715 -2.74864 -1.18271 -2.41327 -11.8979 0.469946
270 90 2 5.09529 -1.76063 -1.10899 6.27997 35.7828 -4.15676
275 92 2 6.72895 -1.05443 1.43116 -4.72669 8.96641 15.2246
274 92 1 5.92348 -0.630474 1.9222 7.0012 -8.84375 -25.7744
5 2 2 6.94928 -3.37203 -1.21074 5.24578 -14.0868 3.75958
443 148 2 2.63527 -1.1913 3.0631 0.377247 3.46983 -8.56352
442 148 1 2.27916 -0.897411 2.13135 -4.64727 15.304 -6.86417
97 33 1 1.11505 -7.14511 -0.0632032 1.36299 -5.48015 17.9336
98 33 2 2.06945 -6.89692 0.202014 1.13724 -0.915209 -8.03791
397 133 1 1.52394 -4.38747 -0.931957 6.86051 2.24891 13.5453
399 133 2 1.56761 -5.32606 -0.513398 -1.80165 -1.95964 -10.6797
52 18 1 6.65966 -6.52376 -3.03712 1.97839 2.2017 -5.12882
183 61 2 4.11404 -5.88458 -1.78041 5.58776 10.3835 -20.5476
182 61 2 4.11748 -5.84197 -0.160634 -5.75129 -21.3563 -4.2349
181 61 1 3.74586 -6.38899 -0.977149 -6.69298 -7.86433 29.0416
54 18 2 7.07517 -6.06168 -2.22069 -1.06144 -1.92033 -3.82977
412 138 1 -0.447623 0.885813 -2.80984 -14.831 -26.6189 8.9859
413 138 2 -0.955115 0.673944 -1.92552 12.0388 13.7314 -13.8709
134 45 2 -3.96498 3.51354 -2.81153 29.1271 -4.33809 -0.147179
504 168 2 -6.74111 1.37788 -2.07174 6.60953 -17.197 -10.6777
212 71 2 -2.81372 1.39079 3.00855 -2.09784 -4.88004 -9.31833
234 78 2 -5.40995 7.19473 0.57748 4.66216 2.79575 0.0958498
502 168 1 -6.43609 0.409978 -2.34554 7.00643 19.9388 -9.23589
278 93 2 -3.88786 2.89259 -0.22904 18.5947 -2.18627 -9.80852
300 100 2 -3.82741 5.72759 -2.86717 10.975 5.0411 -5.4734
298 100 1 -4.41406 5.18366 -2.24701 16.0285 -3.21216 7.4907
299 100 2 -5.38953 5.40688 -2.41298 -16.7313 -0.185921 -15.8233
21 7 2 -1.28759 2.11643 0.172668 -10.3213 5.21185 4.45008
211 71 1 -1.82281 1.20653 2.81585 -7.66934 7.1027 21.1248
311 104 2 -0.0419667 5.77532 -1.33713 5.75233 0.315093 -1.92546
277 93 1 -4.87258 3.0258 -0.0796769 -9.77276 3.78646 35.6608
279 93 2 -5.46544 2.99179 -0.881935 -6.41895 -4.69236 -21.9165
603 201 2 -4.55893 5.75129 -0.775627 7.35681 -3.91386 -10.2361
91 31 1 -2.28261 6.25682 2.10087 4.71075 -8.72011 22.1798
92 31 2 -3.23193 6.51567 1.875 -8.00125 3.29813 -19.8877
93 31 2 -2.42467 6.00277 3.09568 5.79952 -0.137844 0.22697
168 56 2 -1.28622 4.10794 -0.403144 -2.52268 -1.47877 -6.88381
167 56 2 -1.99342 4.4382 0.997877 -9.2469 -5.41876 -1.74924
166 56 1 -1.8941 3.67359 0.320227 2.85525 8.23272 13.9903
601 201 1 -4.70715 5.69696 0.235399 -7.29654 2.96358 33.2073
602 201 2 -4.84416 4.68113 0.384797 1.30555 4.50065 -0.429512
310 104 1 -0.435131 4.83505 -1.43709 -11.1989 -0.676322 2.1621
19 7 1 -1.02247 1.14211 0.375679 26.9607 -13.8821 -27.2159
312 104 2 -1.01194 4.84377 -2.28548 -3.09466 3.71156 -0.156173
390 130 2 -5.02778 2.59507 2.7137 -3.39943 -9.238 -8.54178
566 189 2 -0.51498 5.92288 2.18369 2.6544 -10.7182 -4.87181
20 7 2 -1.23063 0.995512 1.37508 -11.5343 5.33385 10.1268
389 130 2 -5.06782 0.865165 2.53713 -4.7001 19.5098 -4.4082
388 130 1 -4.84321 1.69264 3.15903 9.4885 5.66885 17.8866
297 99 2 0.622366 3.68056 -2.00207 0.466369 6.94885 -1.27784
295 99 1 1.23764 3.23869 -2.70428 7.29189 -8.09949 -9.09179
449 150 2 6.18227 0.453866 -1.42475 -14.6573 7.13256 2.11042
286 96 1 1.65265 6.07069 -2.67612 32.0589 44.6231 -14.3374
544 182 1 1.79198 1.33432 0.209684 -46.2752 -0.634729 -8.277
287 96 2 1.10655 6.84278 -3.10594 6.76777 -19.9249 11.0666
444 148 2 2.3286 0.126576 1.95831 1.99284 -18.4348 1.84906
414 138 2 0.126334 1.72809 -2.79389 3.04145 12.2573 4.35253
99 33 2 0.8399 6.53653 0.545211 -1.5173 6.37075 -3.40853
530 177 2 6.43444 3.49799 -2.48728 -11.5484 9.1188 1.30503
529 177 1 7.06945 3.0669 -1.81039 38.8767 -20.3371 21.2395
506 169 2 5.65684 4.86232 -0.00569347 -13.2117 7.87344 1.30088
328 110 1 3.50395 1.59984 -2.56291 -11.2607 11.1777 27.1338
531 177 2 7.23413 3.61138 -0.914973 -24.3997 -3.95436 -23.7893
448 150 1 5.26081 0.425984 -0.951756 26.5588 -29.4673 16.6971
288 96 2 2.5298 6.50452 -2.2973 -30.6847 -13.6335 -5.99941
545 182 2 0.747036 1.20922 0.112082 27.1252 1.09028 12.7212
450 150 2 4.51758 0.94062 -1.42681 -4.59183 11.3521 -14.2599
254 85 2 4.83689 3.51129 2.91501 15.1453 -9.45233 -21.2884
253 85 1 5.47369 2.88785 2.35982 -8.628 6.90622 16.0755
507 169 2 6.83451 4.90742 1.17761 3.35241 6.56161 15.1452
209 70 2 3.69205 6.07991 0.622462 14.5828 -17.3017 -20.0874
208 70 1 4.0935 5.41446 -0.0789009 -11.1647 3.69111 34.1087
210 70 2 3.97374 5.81308 -0.98869 0.310958 12.5497 -16.1141
329 110 2 2.78709 2.31562 -2.7492 -1.70291 -3.82508 -2.63228
255 85 2 5.54656 3.03032 1.34454 -3.7037 5.64094 10.5861
546 182 2 2.08304 1.54298 -0.74071 13.7611 -2.14289 -5.00001
505 169 1 6.60339 4.58387 0.259548 14.4838 -9.52668 -8.48715
320 107 2 3.13276 3.98776 0.4904 -11.7556 -0.0951016 21.786
236 79 2 3.15565 3.80602 2.95521 -6.25403 1.87084 -9.63002
321 107 2 2.12967 2.7538 1.0083 2.70299 -6.72756 -3.14565
319 107 1 2.54369 3.65183 1.2909 12.2682 2.52668 -11.6696
567 189 2 0.353562 4.42824 1.97318 1.88809 24.3199 1.66738
565 189 1 0.414344 5.4557 2.13343 -11.9861 -3.41199 -3.48525
301 101 1 -1.82458 -4.63729 4.16074 -13.3148 -11.1255 5.0838
50 17 2 -1.62752 -1.37065 3.23972 -6.33221 -5.21814 11.6409
49 17 1 -2.21774 -1.75254 4.00209 20.7124 -5.49519 -19.7478
51 17 2 -3.15325 -1.40393 3.80101 -3.32474 4.17091 8.85421
101 34 2 -5.42463 -2.95201 3.80687 1.30815 11.2411 -19.8911
303 101 2 -2.23616 -3.69943 4.10412 4.8055 3.93612 -1.0415
302 101 2 -2.64148 -5.3024 4.24746 12.0286 11.7366 3.1738
485 162 2 -1.43181 -2.00608 7.27722 -0.127385 6.67522 -19.6162
484 162 1 -0.70871 -1.90674 6.53344 8.07138 -11.141 -12.4026
486 162 2 -1.04353 -1.77482 5.54786 -11.4687 0.899914 24.1332
240 80 2 -4.20407 -6.99863 4.90096 13.8005 -3.2116 5.90486
528 176 2 -0.828434 -4.70556 5.53283 25.2981 -10.1216 17.8014
577 193 1 -3.80105 -4.6573 7.11165 9.59928 54.9094 20.2885
578 193 2 -2.89678 -5.15502 7.11301 -13.1126 -25.8022 -9.0543
526 176 1 -0.100822 -4.64358 6.31156 -35.1868 16.4599 -27.8939
579 193 2 -4.67823 -5.12703 6.87844 8.16809 -21.7727 -5.69059
252 84 2 -3.69048 -1.63634 8.0275 17.0778 -11.1327 12.9642
251 84 2 -3.22929 -3.20239 7.85408 13.3563 32.2905 17.2881
238 80 1 -4.08857 -6.03196 4.61121 -7.41742 -11.4101 -9.72069
239 80 2 -4.99118 -5.9359 4.084 7.25956 13.5887 -0.509258
126 42 2 -6.93692 -5.58147 4.21233 2.16983 -3.1413 -14.9181
124 42 1 -6.31297 -5.74363 3.39607 -11.7303 6.22404 1.14001
94 32 1 -1.77046 -6.32388 7.654 7.30405 7.93889 -4.25096
96 32 2 -0.972994 -5.73261 7.34916 -5.97794 -7.91184 0.34031
160 54 1 -4.23887 -0.132286 5.06542 25.4631 -5.94514 26.1879
162 54 2 -4.80604 -0.961499 5.00363 -18.5495 -10.9027 1.45316
250 84 1 -2.90706 -2.28251 8.29467 -31.6025 -16.2865 -40.5045
77 26 2 -1.78483 -0.894415 8.84474 -15.4985 -19.3499 -3.38834
136 46 1 -6.4078 -2.06457 5.49715 -27.3746 -33.4924 -20.3817
137 46 2 -6.3938 -3.10055 5.62311 4.55524 16.8265 8.28286
291 97 2 -0.869707 -3.43637 9.37926 -4.07271 5.87515 -6.36031
40 14 1 -5.52285 -6.85953 7.63369 -10.2642 -14.3649 -4.41627
453 151 2 -6.0225 -1.33998 7.03684 -3.25071 -1.69317 -12.8989
452 151 2 -5.87203 -0.0418881 8.06794 6.71572 12.5048 7.48204
527 176 2 -0.172319 -3.63081 6.49221 7.885 -1.48787 6.01539
271 91 1 -7.10455 -4.77904 6.21472 -6.03688 16.9603 16.5456
272 91 2 -6.80273 -5.39485 6.98132 4.10782 -1.80738 -10.0124
76 26 1 -1.10058 -0.19074 9.05567 6.08124 37.5852 1.25544
338 113 2 -4.95241 -3.90668 9.26034 3.52937 -11.0159 11.139
339 113 2 -5.58229 -2.44333 8.90025 -5.61098 -0.777591 14.1564
337 113 1 -5.60132 -3.20816 9.60849 -4.93584 17.226 -17.4567
434 145 2 -3.38745 -4.96855 8.78974 -4.22035 -10.6819 0.812139
451 151 1 -5.68146 -1.03994 7.95234 5.07635 -35.9018 -0.763212
405 135 2 0.460634 -4.43891 3.53352 3.81642 5.48122 -8.96594
605 202 2 5.83953 -1.61765 3.2601 -1.43148 -2.80135 2.12341
294 98 2 1.14155 -1.79485 6.32159 -17.7876 -0.26687 15.6717
604 202 1 5.69116 -2.13913 4.14622 2.58515 -0.521902 -1.62209
606 202 2 4.6693 -2.33824 4.19673 7.53903 3.69522 -2.97203
292 98 1 2.1374 -1.81117 6.52926 30.4492 -6.22398 5.21048
293 98 2 2.4002 -1.95776 7.53863 -18.7146 7.78164 -14.7515
66 22 2 2.79477 -6.32773 9.21384 11.153 -3.6421 -26.5448
64 22 1 3.36411 -5.57245 8.79023 -27.5401 -13.1459 28.132
582 194 2 1.13489 -5.66362 6.41079 12.8765 -19.8825 -3.31615
580 194 1 1.90662 -6.38842 6.44475 -23.3834 10.8375 -14.968
613 205 1 5.40969 -6.18495 4.01735 -14.4002 14.3212 20.7826
615 205 2 5.37442 -6.89925 4.75809 4.64821 -9.26804 -8.75594
614 205 2 5.06569 -5.37804 4.56058 7.94972 -2.93112 -11.8535
273 91 2 6.55203 -4.23073 6.56917 8.77768 -17.6831 -12.3406
23 8 2 4.0898 -4.83066 7.58925 17.8815 -23.4664 -3.81904
22 8 1 4.58132 -4.7171 6.67298 -10.0287 8.36615 15.6228
24 8 2 4.05431 -3.92762 6.37363 -2.69672 18.706 -21.947
47 16 2 2.59228 -3.11278 3.47904 -22.2335 -14.0952 0.0822308
581 194 2 2.59005 -6.02243 7.08111 15.6107 3.69707 15.8165
48 16 2 2.70153 -2.28506 5.03807 -6.47445 -7.03014 -6.86236
138 46 2 7.1986 -2.01096 4.8768 18.5006 10.4963 17.9283
46 16 1 3.06827 -2.44284 4.07795 27.8314 15.7743 21.8689
225 75 2 2.37005 -0.222879 5.7236 8.99297 10.1251 -4.10451
25 9 1 2.4089 -2.05212 9.34292 -1.66495 5.3121 -29.2268
129 43 2 6.71098 -6.14171 8.81924 0.00634834 -1.68625 4.9376
213 71 2 -1.39803 1.63575 3.64126 3.15619 -6.72743 0.126967
150 50 2 -6.17257 4.19278 4.93144 -12.4983 -0.214498 7.70354
148 50 1 -5.22004 3.9026 5.16711 22.7879 -0.75829 -5.47895
149 50 2 -5.10783 2.9292 4.87775 0.0791156 3.55473 -1.19904
41 14 2 -4.70278 7.05595 7.86632 2.61041 5.51821 1.5651
95 32 2 -1.45755 7.16646 7.61867 6.03292 1.91748 -0.836913
42 14 2 -6.31504 6.9514 7.73041 -0.769204 8.566 3.37198
402 134 2 -0.812551 2.82498 8.36725 12.598 -0.698196 0.952954
400 134 1 -1.72736 2.39682 8.25474 9.77431 -13.2619 0.257695
190 64 1 -0.359954 5.81946 7.12609 -16.0746 -3.63553 -3.7057
401 134 2 -2.31221 3.1558 8.59512 -13.8644 9.48136 2.36912
191 64 2 -0.263008 5.09198 6.40051 -1.45256 -8.44394 -0.0408798
78 26 2 -1.48137 0.744383 8.77142 8.40151 -14.5931 4.67078
62 21 2 -2.26994 5.90331 5.46536 -19.353 -7.99127 -11.4723
61 21 1 -2.97514 5.73567 4.72089 11.6674 7.3224 5.80134
63 21 2 -3.81837 5.2063 4.99764 6.02147 -5.79934 4.59613
161 54 2 -4.62366 0.624181 4.53789 -14.9873 20.6688 -23.0959
563 188 2 -1.59811 1.74336 6.5792 -19.2778 -6.10191 4.56714
562 188 1 -2.0353 1.62425 5.65304 2.35074 -0.377886 -3.18264
564 188 2 -2.92493 1.08522 5.69257 14.412 1.92277 -0.622305
589 197 1 -5.49052 1.40479 8.6652 7.5633 26.2312 -2.36461
591 197 2 -6.32051 1.94849 8.46995 -16.5023 1.79256 1.17881
590 197 2 -4.74897 1.98818 8.27396 3.4326 -7.53549 4.43175
466 156 1 -2.50616 4.91817 8.81251 13.1267 11.3622 -6.14589
468 156 2 -1.85742 5.09163 8.00994 -9.30432 -1.28758 17.931
467 156 2 -2.34138 5.6686 9.49851 1.27996 0.969928 -4.49426
110 37 2 -0.756349 2.82592 5.80989 -8.53844 1.90022 -6.54142
513 171 2 3.85119 6.68408 6.01067 13.6268 4.54251 11.0351