ITEM: TIMESTEP
32000
ITEM: NUMBER OF ATOMS
648
ITEM: BOX BOUNDS pp pp pp
-7.2675981939006666e+00 7.2675981939006666e+00
-7.2675981939006666e+00 7.2675981939006666e+00
-1.6150218208668338e+01 1.6150218208668338e+01
ITEM: ATOMS id mol type x y z fx fy fz
432 144 2 -3.68313 -6.66642 -13.4628 -4.76464 4.8421 -4.24885
431 144 2 -2.47206 -5.62242 -13.7856 -3.57736 0.732407 -5.35874
324 108 2 -6.3401 -1.97677 -14.0666 0.382018 5.6081 -6.38208
430 144 1 -3.47309 -5.66168 -13.5439 7.27194 -6.13594 6.904
83 28 2 -5.40608 -0.2866 -12.505 11.607 17.2823 -15.2653
82 28 1 -4.54159 -0.0475892 -13.0334 -11.0981 -54.8252 15.9103
487 163 1 -1.30922 -5.69941 -15.4396 -21.2689 -12.8586 -15.5332
471 157 2 -2.99496 -5.16545 -11.0806 -14.3276 2.04444 -4.33746
469 157 1 -2.09673 -4.78454 -10.8347 18.4982 -16.629 5.72138
58 20 1 -2.18771 -2.07655 -11.192 -4.61619 -8.42843 9.9514
339 113 2 -3.99821 -2.75447 -15.2325 -30.1278 2.78498 2.78723
337 113 1 -3.12496 -3.18375 -15.0023 37.0932 4.11737 -2.1943
338 113 2 -3.18381 -4.13094 -14.6176 -10.4395 -0.216618 0.118146
84 28 2 -4.16164 -1.01794 -13.1761 -4.29561 42.1491 -3.97563
610 204 1 -5.61364 -4.47735 -11.9979 -1.8228 10.8956 5.54917
612 204 2 -5.29944 -3.58242 -11.557 -6.47929 -6.9858 4.98083
611 204 2 -4.86732 -4.70921 -12.6433 8.03038 -9.04145 -12.0539
488 163 2 -0.39784 -5.30306 -15.6093 13.8052 7.2359 -4.73422
396 132 2 -2.08088 -0.816484 -14.4973 -4.39589 -25.8166 -7.56321
470 157 2 -1.50752 -5.61629 -10.67 -1.11946 11.0857 -0.309003
639 213 2 -6.47242 -5.76047 -15.7503 3.76583 7.82276 -13.3897
266 89 2 -5.50633 -1.80401 -10.1603 7.72189 9.19123 17.4775
59 20 2 -2.04499 -3.07821 -11.4235 -1.3063 5.99564 5.98943
532 178 1 -6.72711 -6.55075 -10.6618 15.5755 -2.13258 9.86788
616 206 1 -7.0203 -1.41233 -12.675 12.2016 8.7395 -1.0834
617 206 2 -6.91702 -1.59221 -11.6724 -8.44815 -1.4115 -4.87179
637 213 1 -6.87911 -6.57748 -15.2776 3.57558 4.88855 27.1565
638 213 2 -6.38389 -6.53687 -14.3837 -10.4589 -5.98836 1.27348
534 178 2 -6.25558 -5.64759 -10.8665 -10.7881 -7.70724 -8.90237
267 89 2 -3.94936 -1.87362 -10.8739 10.8959 7.01621 0.904169
265 89 1 -4.81258 -2.35681 -10.6591 -21.2286 -16.1166 -17.1196
60 20 2 -2.24918 -2.03053 -10.161 8.46541 0.602029 -10.6237
620 207 2 -1.78956 -0.625954 -11.6992 4.76931 -4.36207 -1.25351
322 108 1 -5.91839 -2.21028 -14.9835 13.9845 -9.61131 -11.9541
323 108 2 -6.31747 -1.67998 -15.7812 -8.45599 2.76785 10.6451
175 59 1 6.33469 -2.28575 -9.704 30.3862 34.5998 -5.54783
533 178 2 7.01239 -6.76264 -11.2584 -11.5899 5.77527 -8.13106
618 206 2 6.64662 -1.82218 -13.0373 -11.4905 -9.78223 7.55787
570 190 2 5.72556 -4.15293 -12.9506 3.18217 7.14265 2.70512
176 59 2 6.50083 -1.2778 -9.97634 -12.6496 -24.2752 5.03694
459 153 2 3.63703 -4.02546 -9.73585 4.31616 2.50367 -4.09481
335 112 2 2.30583 -1.06371 -11.742 14.0539 -19.1903 -12.2763
457 153 1 3.77615 -3.06289 -10.1213 5.31369 0.618438 -10.8836
456 152 2 4.30707 -2.47083 -13.0204 1.97082 0.496586 6.02827
454 152 1 5.24051 -2.72137 -13.376 -11.3362 11.4586 -0.0319175
568 190 1 6.16012 -5.02392 -12.6039 2.2764 -4.29547 -6.23901
458 153 2 4.75784 -2.92211 -10.4499 -10.4208 -5.27579 18.1167
356 119 2 1.61206 -2.26971 -13.4046 6.65838 -0.292921 -14.9054
357 119 2 0.374905 -3.17505 -13.3263 -13.2325 -7.63415 -3.11967
355 119 1 0.964903 -2.77902 -14.0406 4.48585 0.584812 14.2429
569 190 2 7.12892 -4.85198 -12.3154 1.19246 5.30002 -0.991307
455 152 2 5.13075 -2.53769 -14.3895 1.16075 -0.576406 -6.59108
607 203 1 2.03631 -7.1476 -15.2553 -2.35079 15.0264 -1.41161
609 203 2 2.99442 -6.98478 -14.9441 9.71461 -8.47564 -1.40747
132 44 2 1.0159 -3.6996 -15.4502 6.42287 4.63592 -16.2867
243 81 2 5.19929 -6.56928 -12.7892 23.1977 -8.39812 17.669
201 67 2 5.492 -5.95298 -14.9394 -0.0293204 0.359472 5.38103
608 203 2 1.85028 -6.21583 -15.6304 -8.89412 -2.4962 -3.70763
172 58 1 4.67952 -2.2163 -15.8796 7.09597 -21.7556 -31.602
199 67 1 4.68967 -6.21295 -15.5086 7.52042 4.59064 14.2303
334 112 1 2.74414 -1.85351 -12.2921 -3.97412 9.63121 21.6316
336 112 2 3.11753 -2.54044 -11.587 -10.449 16.912 -1.74361
123 41 2 0.20079 -0.350613 -10.0676 20.2898 5.05844 -13.3952
246 82 2 3.26515 -0.544493 -14.2148 -16.4842 -4.19717 7.58972
394 132 1 -2.03058 0.0809506 -14.9287 3.8724 14.4576 21.6242
475 159 1 -2.46711 4.39629 -10.9394 -6.23865 6.87654 5.41027
521 174 2 -0.16845 7.16214 -13.8293 2.308 -0.632744 2.63932
395 132 2 -1.80584 0.556287 -14.04 -2.19065 7.94009 -10.7503
477 159 2 -1.70252 3.90018 -11.3644 8.80916 -7.27351 -10.2979
476 159 2 -3.26257 4.50338 -11.5949 4.08099 -2.29233 11.234
480 160 2 -3.98927 5.49429 -14.4979 2.77389 -8.45351 -1.81012
478 160 1 -4.52999 6.26612 -14.1068 -4.65495 22.8925 -20.3793
169 57 1 -3.5484 3.97346 -15.6824 7.85324 6.58125 -6.93168
171 57 2 -4.38288 3.63996 -15.1913 -7.24745 -6.60296 5.55337
648 216 2 -4.94053 1.68565 -10.9038 -9.55321 -10.1928 6.13423
647 216 2 -5.58987 3.14733 -11.1228 -14.9046 -22.8651 -1.42845
646 216 1 -5.85686 2.13678 -11.0811 18.17 35.5541 -1.90146
140 47 2 -6.6199 2.54039 -16.0825 8.69818 5.72195 8.72496
479 160 2 -4.8672 6.80393 -14.9397 5.0158 -15.148 21.9194
34 12 1 -5.604 2.89521 -14.1332 -3.11809 21.415 -14.2506
36 12 2 -5.13962 2.14744 -13.6163 -8.71762 -4.02537 10.683
133 45 1 -3.72702 0.962666 -9.98259 -26.2397 5.3631 8.31042
248 83 2 -0.617031 6.85398 -11.0891 -16.7257 -0.188766 6.67843
135 45 2 -3.11479 0.393117 -10.555 18.5205 10.6508 -0.254421
522 174 2 -0.102333 5.77017 -12.8993 3.87188 2.68693 -6.97535
520 174 1 -0.259754 6.78925 -12.8816 -3.9487 -8.16705 6.5196
619 207 1 -1.56246 0.299333 -12.1065 -0.802324 13.7186 -8.35354
146 49 2 -6.93571 4.60203 -12.0989 27.2661 -2.58669 16.4358
437 146 2 -7.17511 1.13815 -10.5939 -4.78801 1.18866 2.0165
621 207 2 -1.07899 0.887321 -11.4349 2.81997 -4.96251 2.85449
318 106 2 -4.8273 5.69683 -12.3583 -2.72061 5.99632 -7.65306
247 83 1 -1.18475 6.821 -10.2086 -0.654825 -2.75036 -15.7112
249 83 2 -1.90857 6.07814 -10.2652 11.3001 3.42825 -3.23597
317 106 2 -5.00375 5.66491 -10.6535 -1.70324 -5.45506 -9.6674
316 106 1 -5.01145 5.11822 -11.5353 -7.02308 -3.04191 13.4992
35 12 2 -6.39457 3.40693 -13.6688 14.7002 -16.8924 2.6048
228 76 2 -0.172688 3.03449 -16.1454 1.48569 -4.48181 4.47059
7 3 1 1.84796 0.406249 -10.6008 9.73987 20.4988 39.8427
241 81 1 5.36895 7.00739 -12.4131 -0.65541 8.50126 -15.2175
242 81 2 4.49708 6.57093 -12.5983 -17.4685 -16.5501 2.64727
645 215 2 0.687278 3.16412 -13.5773 -3.40523 25.5857 14.8394
643 215 1 0.512828 3.97042 -12.9293 4.34267 -19.6796 1.90321
141 47 2 6.89624 1.4981 -15.2892 -4.57062 1.40757 19.2308
644 215 2 1.00803 3.82576 -12.0372 -1.99915 -1.85526 -11.5725
99 33 2 0.718338 5.21956 -10.3291 9.98813 -0.122155 22.5442
307 103 1 3.5855 2.00133 -11.8745 -3.2067 -2.89153 6.17079
308 103 2 4.09971 2.85963 -11.9423 6.04634 11.0601 3.0481
8 3 2 2.60416 0.979527 -11.0337 -7.90877 -3.83412 -6.55936
309 103 2 3.76529 1.45439 -12.7106 -3.92925 -9.51958 -12.1319
363 121 2 6.68821 0.245479 -13.4415 9.31335 -13.8217 10.2491
245 82 2 4.30444 0.478565 -14.722 1.86518 14.1837 4.88444
244 82 1 3.35887 0.457152 -14.3387 19.0224 -8.27202 -9.8953
145 49 1 6.92248 4.19853 -12.7109 -19.0644 11.4655 -8.98118
147 49 2 6.32108 5.02251 -12.7765 -7.68086 -5.11314 -8.52116
438 146 2 5.85006 0.630378 -9.83322 16.3192 8.32368 -9.12928
436 146 1 6.62992 0.407847 -10.4848 -12.9774 -11.2698 11.3082
362 121 2 6.2651 1.80964 -13.0918 0.849388 -15.9155 -14.412
361 121 1 6.19106 1.04694 -13.7991 -6.19821 29.1442 6.02562
97 33 1 1.23298 4.54444 -9.74329 -5.27768 -8.22653 -23.6026
226 76 1 0.79895 3.28603 -15.961 -8.30317 33.839 -17.0938
216 72 2 5.91466 5.36089 -16.1312 -15.324 4.27487 4.85246
215 72 2 7.13466 6.55902 -15.7587 -7.87051 -2.38371 -0.656374
194 65 2 4.04069 4.05905 -15.5758 -13.5171 -19.2859 16.5239
350 117 2 -6.12382 -3.2079 -4.86504 -12.6133 -4.57598 -5.28214
306 102 2 -2.2877 -4.80811 -4.43014 7.90375 -7.39022 -8.09054
305 102 2 -3.35815 -3.60601 -4.17709 5.71834 0.259395 4.30997
304 102 1 -2.45918 -3.9873 -3.84868 -12.9816 14.342 7.07107
376 126 1 -1.5712 -3.65769 -8.01096 15.3268 6.98275 -2.98879
370 124 1 -5.77093 -6.31532 -3.48981 32.0418 -12.0247 5.0528
378 126 2 -1.56011 -4.0753 -8.94956 7.21483 5.31381 6.05298
180 60 2 -4.97467 -0.314832 -8.55148 -5.29811 -9.17874 -0.162671
179 60 2 -6.17373 -0.689682 -7.52025 3.66185 -13.4371 -1.33132
178 60 1 -5.6984 -1.0299 -8.37241 -2.03722 20.6316 -6.82253
349 117 1 -5.1459 -3.40863 -4.69232 8.66442 -0.446391 2.47769
87 29 2 -6.94074 -1.80354 -5.45002 -5.1099 -13.0702 5.94193
412 138 1 -3.46466 -2.63338 -6.61957 -4.95883 32.6913 7.4088
371 124 2 -6.17194 -5.39972 -3.62924 -3.71762 6.58209 -6.85564
413 138 2 -3.02267 -1.67033 -6.57592 -13.5243 -24.7069 4.40485
414 138 2 -2.74204 -3.11877 -7.16835 5.54724 -14.7276 -4.69128
555 185 2 -2.59861 -6.62289 -4.29401 11.5469 9.4062 -9.12761
553 185 1 -2.03197 -6.27243 -5.08792 -6.64968 -16.0132 -0.560318
554 185 2 -2.25252 -6.89385 -5.87426 2.53586 5.97057 2.38566
351 117 2 -4.59734 -3.20863 -5.55864 0.412919 3.267 6.2763
372 124 2 -6.48782 -7.05238 -3.28613 -5.7711 17.9692 -1.13737
85 29 1 -6.65745 -0.902242 -5.80696 -15.8624 22.4595 -8.65041
369 123 2 -6.68862 -5.051 -7.47441 -12.4328 3.13512 -6.19559
368 123 2 -5.16348 -4.32668 -7.32792 4.62664 8.64698 -1.92539
367 123 1 -5.73482 -5.13954 -7.14254 6.59726 -5.10718 1.93216
340 114 1 -1.08403 -0.835824 -3.49931 37.3216 -28.8492 -1.57668
342 114 2 -2.07726 -1.00337 -3.33498 -14.1362 4.54781 5.24296
600 200 2 -0.274117 -5.42751 -4.90521 13.217 15.5739 -17.8573
377 126 2 -0.718717 -3.08755 -7.74142 -14.8293 -19.8351 -16.4979
37 13 1 -1.99948 -0.443179 -6.69834 -5.09843 6.74312 -11.3077
38 13 2 -1.81797 -0.0897849 -7.63433 -4.72429 1.87236 -9.89897
122 41 2 -0.209219 -1.14598 -8.70728 10.3541 -11.3504 3.96174
121 41 1 -0.55137 -0.496604 -9.41896 -31.7883 13.9577 4.18128
12 4 2 -6.44027 -6.45081 -6.49423 9.00162 -13.8444 8.17069
39 13 2 -1.04681 -0.480005 -6.30574 1.44797 -0.145604 14.4028
341 114 2 -0.580295 -1.75061 -3.53729 -17.4469 25.3745 0.787258
177 59 2 7.09191 -2.4719 -9.03426 -9.38358 -1.8945 -3.29339
209 70 2 5.60004 -3.32453 -5.01197 -3.17354 -4.18058 -9.80332
208 70 1 6.53396 -3.08471 -4.66333 0.599821 12.1429 13.9065
210 70 2 6.29651 -2.52009 -3.8165 2.43466 -5.77267 -6.90447
90 30 2 1.56803 -2.4334 -7.59503 -8.37156 0.0408234 -1.9759
120 40 2 3.71953 -6.50677 -9.4766 11.0646 -22.962 -10.8716
381 127 2 3.80365 -3.06518 -6.73489 3.43578 4.43062 4.84948
524 175 2 3.96622 -2.0119 -8.63587 -0.111641 14.1614 9.51757
118 40 1 3.60994 -5.5554 -9.19301 3.85072 14.7822 9.3233
88 30 1 0.608145 -2.08786 -7.74014 3.22626 -4.27437 5.59225
89 30 2 0.392678 -1.3557 -7.04146 11.1825 -0.8097 6.48257
598 200 1 0.499136 -4.74383 -5.08673 -24.0816 -20.7117 15.7552
153 51 2 5.70105 -5.2426 -8.45042 3.97508 -16.0715 12.3979
151 51 1 6.08185 -5.68346 -7.58864 -1.54566 24.5395 -19.8429
152 51 2 5.61372 -5.21978 -6.81811 -3.12472 1.12252 7.93514
33 11 2 1.29648 -5.35065 -8.02932 -2.58066 -4.30434 -4.3038
636 212 2 2.78279 -6.62009 -4.57114 -5.28478 7.21054 5.81174
379 127 1 4.038 -3.79549 -6.05272 3.22247 -20.1712 -5.17609
380 127 2 3.43197 -4.61402 -6.26778 3.14437 21.0002 3.58713
32 11 2 1.22539 -4.6704 -6.50239 1.4863 -2.89845 0.983906
31 11 1 1.82522 -4.796 -7.34744 0.291885 2.4719 8.19532
623 208 2 0.0616744 -7.19622 -9.31851 -10.6851 -3.2077 -4.29975
622 208 1 0.935187 -6.81921 -8.94754 13.9851 3.38115 11.7926
258 86 2 2.61907 -1.1079 -3.27635 -1.46185 13.0675 -11.7154
256 86 1 2.65807 -0.178988 -3.76165 3.39872 -11.3064 14.0368
119 40 2 3.12775 -5.64336 -8.28736 -3.71922 13.8004 -6.41092
599 200 2 0.648613 -4.39712 -4.14173 4.87953 5.51107 0.880341
523 175 1 3.92603 -1.42835 -7.76734 -7.4666 -19.0971 -4.61177
525 175 2 4.13942 -0.451813 -7.93952 4.3887 7.25215 -14.4102
285 95 2 1.38169 -0.299473 -5.51011 -2.02998 1.84342 7.26624
86 29 2 6.98108 -0.396658 -5.90039 8.44126 -0.498632 3.75126
538 180 1 4.75944 -0.0155939 -5.45055 -22.3168 -3.68492 -15.6924
283 95 1 0.446281 -0.142497 -5.90077 -2.17205 31.4737 8.3501
540 180 2 4.30472 -0.312807 -6.33793 19.8253 -0.324797 18.1739
627 209 2 -6.03731 6.94359 -9.67891 -9.15585 14.3123 -17.1286
625 209 1 -5.56444 6.47153 -8.90875 10.3934 -11.094 12.0932
134 45 2 -3.40742 1.8117 -9.44592 11.5765 -22.7034 -5.00428
560 187 2 -2.64826 3.56019 -9.24728 -2.99919 7.01094 -14.9952
556 186 1 -3.02999 6.47816 -7.78765 -33.2573 -2.8433 -7.1315
558 186 2 -2.48923 7.16899 -8.26411 13.7622 14.4121 -10.2169
557 186 2 -4.00336 6.51895 -8.18974 16.4851 -5.07315 11.6759
626 209 2 -6.04981 6.89103 -8.11154 4.18587 -5.03552 12.8661
10 4 1 -6.58082 7.08028 -6.23001 -2.87189 -11.3293 8.94179
30 10 2 -4.94125 0.030353 -6.1359 -16.3396 -12.8447 9.64148
11 4 2 -6.01108 6.8011 -5.41419 -4.15681 11.7703 -14.0154
365 122 2 -5.26591 3.65721 -7.49629 15.0267 14.7949 -15.6472
366 122 2 -5.29649 2.27055 -6.69371 11.258 -19.2884 6.39991
364 122 1 -5.73928 3.18042 -6.7668 -25.7617 2.44529 8.3357
561 187 2 -2.2938 3.42118 -7.7049 -5.69371 -3.66959 9.29052
559 187 1 -2.80588 2.95206 -8.45227 8.21328 7.36838 1.68035
28 10 1 -4.40531 0.795856 -6.5089 19.9071 9.58309 -2.2075
29 10 2 -3.41302 0.486379 -6.46186 -9.689 3.77538 -2.43379
418 140 1 -1.77207 4.84056 -6.25844 11.3494 -9.50022 -38.1909
420 140 2 -2.05979 4.94004 -5.29114 -16.9202 14.0933 10.8172
419 140 2 -2.28054 5.53564 -6.89071 6.17781 -15.3639 20.8774
333 111 2 -4.84459 3.44736 -3.59036 -1.8967 12.4305 -1.34142
332 111 2 -6.28666 4.1509 -3.25162 5.54172 11.0309 6.39325
329 110 2 -0.447316 3.82471 -6.45876 11.1896 -0.53995 7.06775
298 100 1 -3.24904 5.77063 -4.20628 7.40324 23.8811 36.1252
299 100 2 -3.0206 6.53117 -3.51968 -0.280685 -19.3019 -17.2475
300 100 2 -4.03563 5.30395 -3.73077 -7.27036 -10.0622 -8.6795
158 53 2 -0.744132 0.75243 -3.6869 -2.62733 3.38347 -5.43147
159 53 2 -1.52336 2.15792 -4.2575 8.75748 -11.6608 6.90298
157 53 1 -0.612124 1.69494 -4.13108 -10.09 10.4146 -6.12547
9 3 2 1.83474 0.837543 -9.62751 -3.57779 -16.4207 -34.6528
634 212 1 2.78485 7.06809 -5.12741 -2.07777 -3.01795 -6.13487
624 208 2 1.38089 7.03044 -8.33061 -4.26608 -2.19933 -0.0128
539 180 2 3.93764 0.0504104 -4.81814 12.4301 -2.81259 3.17707
384 128 2 6.71229 4.66595 -7.82945 -8.28869 8.85688 -2.00949
382 128 1 6.10849 3.98791 -7.37297 18.6384 -1.61991 -6.42757
383 128 2 6.83931 3.32332 -7.09946 -3.18588 -5.10382 11.725
80 27 2 5.48767 2.32549 -8.32797 -15.2985 -7.89648 8.17981
330 110 2 0.079085 2.77705 -5.32279 13.6949 1.16747 -5.89934
328 110 1 0.406986 3.29218 -6.16622 -22.1863 -2.00108 2.74315
98 33 2 1.52492 4.81926 -8.7878 -7.56254 17.2158 -1.40048
79 27 1 4.8063 1.54684 -8.27377 13.9956 0.204052 -11.1701
473 158 2 1.21291 4.63031 -6.65275 -1.46847 0.845108 -3.52699
81 27 2 3.86682 1.93444 -8.16604 -5.7025 2.79195 -0.678631
472 158 1 1.65052 5.41072 -7.17528 14.2256 17.1738 5.0657
117 39 2 6.007 6.48347 -5.41949 19.4345 19.0215 -6.09966
474 158 2 2.12585 6.06263 -6.50973 -9.54055 -8.30785 -4.49558
116 39 2 5.57603 4.95952 -5.60604 0.924233 -19.6086 -12.7335
115 39 1 5.29217 5.82584 -5.18428 -19.4714 1.80001 14.2969
284 95 2 0.0338382 0.707271 -5.40443 17.8727 -32.5617 -9.67102
15 5 2 5.85768 6.90886 -8.26914 -18.6245 1.06854 -5.39163
68 23 2 1.36854 2.44415 -7.67099 -5.00599 1.10221 12.874
67 23 1 1.97152 2.36562 -8.48286 8.09265 -11.9679 -7.06866
69 23 2 1.72209 3.1437 -9.1193 1.18679 -0.795717 -0.818982
13 5 1 5.00207 6.51469 -8.70364 14.0849 6.69431 -3.79581
14 5 2 4.67715 5.69737 -8.21721 -1.44047 -10.9717 8.07965
635 212 2 3.75182 6.74493 -5.11509 10.0504 -10.6419 -2.65635
602 201 2 5.82085 4.55342 -3.23639 -13.6723 -0.925704 -5.81147
229 77 1 2.67376 4.00366 -4.23174 1.21799 -21.6267 6.80026
231 77 2 3.01224 4.77803 -3.68114 -1.1263 15.0648 -5.92122
230 77 2 2.26594 4.23277 -5.13933 3.15344 3.20905 6.75964
261 87 2 -2.38861 -4.0926 -0.747223 -7.881 16.6613 -1.00841
232 78 1 -5.18945 -1.18718 0.231066 -16.9285 51.4711 -2.24056
234 78 2 -5.54442 -0.234622 -0.074125 12.08 -39.0882 16.236
260 87 2 -3.83369 -4.43282 0.0146697 1.9216 10.1483 -8.62681
278 93 2 -4.4303 -0.958594 -2.86468 -0.678138 -4.32247 4.13941
259 87 1 -3.42416 -3.95413 -0.804388 -8.09568 -25.9148 9.38759
354 118 2 -4.51271 -3.08955 -1.94281 -22.7147 20.424 9.43954
548 183 2 -3.41621 -5.84068 2.28496 1.51296 -10.7968 -3.42441
549 183 2 -3.65751 -4.33591 2.94486 -7.64539 -2.91388 -6.73098
353 118 2 -5.63905 -2.85695 -3.07064 4.91854 11.1969 13.531
547 183 1 -4.00004 -5.01577 2.24739 -0.739865 14.004 5.0574
352 118 1 -5.37345 -2.4956 -2.13027 24.3787 -32.4034 -18.772
233 78 2 -5.24857 -1.79101 -0.589855 -4.2116 -9.88726 -13.2297
462 154 2 -3.2452 -2.3967 2.97042 -7.74729 -2.40257 5.94751
18 6 2 -0.380969 -3.92333 -1.27557 11.3397 -5.57768 -19.5952
17 6 2 -0.26073 -3.80952 0.325693 13.8926 -1.00543 18.6844
16 6 1 -0.888295 -3.68937 -0.440427 -10.9173 0.724858 2.48086
50 17 2 -5.763 -4.83372 1.57566 16.648 2.13532 15.6375
566 189 2 -2.58587 -0.332918 2.27753 13.671 7.86797 -5.32872
274 92 1 -2.95296 -2.05758 1.34659 -12.7414 5.35159 8.65835
275 92 2 -2.4625 -2.44796 0.544997 6.70469 -3.76306 -4.46885
276 92 2 -3.93682 -1.91358 1.00403 12.9184 5.4841 1.96723
49 17 1 -6.60508 -4.49219 1.13234 -7.03344 -5.9972 -27.9807
255 85 2 -6.40362 -7.02172 -1.17062 -5.25554 4.27124 -0.899322
253 85 1 -6.28223 -7.09385 -0.162279 -1.7123 12.8053 16.8937
254 85 2 -6.6511 -6.26146 0.3641 9.03537 -17.868 -17.791
373 125 1 -3.03789 -6.61905 -2.51972 5.79799 0.714141 7.78616
375 125 2 -4.02526 -6.62112 -2.83866 -0.744187 13.5437 5.09204
374 125 2 -2.71469 -5.67145 -2.22263 -16.3751 -9.43238 -12.5026
500 167 2 -0.0596986 -6.25816 -2.13735 -12.4095 -17.4045 11.0796
287 96 2 -1.76924 -7.15013 -1.1915 -5.21279 6.12204 -10.2149
277 93 1 -3.59465 -0.377065 -2.79115 -7.7586 9.41202 5.03077
575 192 2 -6.33828 -0.582018 2.6489 1.48604 0.481406 5.05813
198 66 2 2.66002 -3.73016 -2.72169 3.80978 9.27409 15.1432
196 66 1 2.54082 -2.74572 -2.45078 -12.6633 21.0868 -30.2091
450 150 2 5.07874 -1.56786 -1.60877 1.11445 -2.06504 6.83426
448 150 1 5.60244 -2.09129 -2.30132 8.30039 2.24145 -13.6123
449 150 2 5.84925 -3.03562 -2.00431 -4.33489 -1.39198 11.2582
311 104 2 0.691483 -7.21216 0.338466 3.51841 -16.0205 -1.00916
6 2 2 6.11101 -1.87287 0.836877 10.5155 -24.5703 5.29935
280 94 1 6.21753 -4.7426 -1.00902 -4.4626 19.5874 7.43401
281 94 2 6.6421 -5.15807 -1.8209 5.39091 -7.44495 -5.83231
197 66 2 2.78679 -2.4195 -1.5188 3.40259 -23.1903 6.69896
490 164 1 3.40648 -4.19589 -0.247892 6.48575 -2.03089 -4.88633
302 101 2 1.55031 -6.06828 1.8098 1.03004 -5.94749 -6.54877
4 2 1 5.65377 -0.991381 0.770949 -20.2572 22.8171 1.46139
51 17 2 7.237 -4.06336 1.80438 8.25067 -4.98689 -5.62195
501 167 2 1.47933 -5.93006 -2.68553 -13.4357 12.0627 11.3787
499 167 1 0.57605 -5.51809 -2.35453 24.0944 10.411 -15.7453
303 101 2 0.625831 -5.05728 2.76495 22.3194 6.88024 -13.6569
235 79 1 3.25475 -5.86081 -2.58882 13.4463 -24.7771 1.73272
236 79 2 3.21789 -5.1748 -1.83274 1.40608 3.43659 10.2474
301 101 1 1.49198 -5.11163 2.17325 -22.4562 6.27192 24.1738
491 164 2 4.41046 -4.43384 -0.344719 -6.82736 -1.79784 9.00268
492 164 2 2.99839 -4.43636 0.6613 5.3748 -0.828888 -0.89568
282 94 2 6.92941 -4.41843 -0.321272 -4.68697 -8.43664 -2.32674
5 2 2 4.91026 -0.915251 1.49063 1.45487 -9.60114 -5.24187
237 79 2 3.78741 -6.68984 -2.2237 -13.9203 17.1301 -8.33496
398 133 2 4.75951 -7.00664 1.69574 -9.23752 4.75091 16.6492
397 133 1 4.3281 -6.88951 0.782297 10.5163 -0.340832 -18.6161
399 133 2 3.30525 -6.91992 0.718427 -3.10191 -1.01458 13.7464
511 171 1 6.1566 -3.61115 2.652 -0.564135 -7.69548 34.651
512 171 2 5.23087 -3.40176 2.99579 -15.5391 5.33123 -3.2576
613 205 1 3.77011 -1.37065 2.71311 -4.90421 -6.15777 -11.638
614 205 2 3.40172 -2.26871 3.05602 -0.706901 4.72084 3.22595
279 93 2 -3.65666 0.237423 -1.97047 0.392947 -5.53118 -7.43165
331 111 1 -5.25411 4.31175 -3.21588 2.95686 -24.3751 -5.81248
91 31 1 -3.27798 6.80683 1.40042 12.9912 7.06135 -22.5434
95 32 2 -2.96773 6.73392 3.09234 -2.83498 -2.34584 -20.3683
546 182 2 -3.17932 1.28348 -0.392708 21.6371 8.46728 5.1811
20 7 2 -0.348925 1.34001 -0.281489 10.1687 13.6895 -8.57947
92 31 2 -2.6126 6.75223 0.628648 13 1.21881 17.2187
93 31 2 -4.09361 6.62001 0.841894 -25.6589 -1.76882 8.59104
565 189 1 -3.02107 0.559633 2.53701 3.52489 -34.9806 0.870948
592 198 1 -4.52649 1.92382 -0.92834 -17.6763 0.0713402 5.19862
594 198 2 -4.98998 2.23517 -0.0574038 6.12287 -4.14787 -10.0837
593 198 2 -4.85031 2.51679 -1.69038 0.48259 1.4846 3.28669
150 50 2 -4.70194 3.98431 1.03496 9.42955 0.907604 10.4338
286 96 1 -0.88983 7.12659 -0.752954 -3.76766 -19.5795 8.16761
288 96 2 -0.957077 6.1187 -0.54282 6.99388 5.60824 0.813003
149 50 2 -4.02104 3.64722 2.50611 -8.40868 0.186462 19.1398
567 189 2 -3.90561 0.0829297 2.71828 -18.5326 21.6409 6.6333
535 179 1 -1.41544 4.13099 0.413927 2.85097 8.67453 -15.3563
536 179 2 -2.25818 3.8398 0.927843 -9.50552 0.941783 -3.86905
148 50 1 -3.82779 3.6832 1.52111 -5.77661 1.76363 -25.93
545 182 2 -2.1647 0.867775 0.887888 -7.07189 10.0557 -12.5
537 179 2 -1.32731 3.48833 -0.367399 2.73357 -6.30295 2.08704
168 56 2 -0.174342 4.66173 2.75339 -17.3091 -7.67728 -7.58892
166 56 1 -1.1462 4.60031 3.11226 34.2362 10.4216 30.0329
544 182 1 -2.17182 1.19859 -0.0952438 -1.89275 -12.7664 10.4941
54 18 2 -6.22188 5.66728 0.0845348 5.34027 5.96061 -15.1196
52 18 1 -6.20634 4.82735 0.657043 -8.5547 14.3032 20.4996
53 18 2 -6.76334 5.25642 1.4329 5.46395 -23.543 -2.03416
167 56 2 -1.79122 4.10528 2.52793 -3.18399 -8.9712 -19.2557
257 86 2 2.9165 0.544368 -3.07457 -5.80333 -3.69445 -3.07023
21 7 2 0.735656 1.91287 -1.45765 -0.174526 -3.13315 -6.24146
312 104 2 1.75938 6.06907 0.982097 -10.9618 -3.28044 -9.59826
310 104 1 1.53149 7.06411 0.885991 8.01555 14.9104 6.33384
506 169 2 6.90924 5.90204 -3.00113 10.7725 -0.683428 1.5923
507 169 2 5.789 6.82337 -2.48441 -14.9278 8.87398 10.2264
505 169 1 6.75086 6.89726 -2.796 -5.68579 -20.464 1.199
19 7 1 0.549325 1.84993 -0.462957 -21.4607 -8.83422 3.61525
268 90 1 2.2996 1.29193 1.35168 19.848 -8.53094 18.9843
269 90 2 2.33133 0.303511 1.58744 2.91548 -3.30487 3.62363
270 90 2 1.58137 1.43758 0.639571 -11.6406 7.09157 -16.9332
183 61 2 4.30443 2.17305 0.861303 1.25808 5.79909 6.63659
428 143 2 6.18857 6.44672 2.86864 -7.49421 14.7601 5.16269
531 177 2 6.35353 0.7159 -3.1832 -3.24271 9.33186 9.27721
529 177 1 6.13062 1.52276 -2.57556 -8.59112 -2.43768 -10.7109
182 61 2 4.35865 3.58424 1.7091 -5.78705 10.2973 -4.90952
181 61 1 4.92728 2.82906 1.35955 -4.32673 -16.1734 -4.8269
498 166 2 6.3979 1.94668 0.430715 1.48375 10.2547 8.24574
497 166 2 6.39317 0.354948 0.415051 -9.19403 -32.9641 5.74108
504 168 2 3.07732 2.66439 -2.91064 -9.934 11.1277 -17.1645
502 168 1 3.38089 2.14918 -2.09638 24.988 -8.95486 3.84671
503 168 2 4.3885 1.93023 -2.24402 -11.4116 -0.0923943 3.30529
601 201 1 6.69196 4.1504 -2.92453 2.35822 -12.2564 13.003
297 99 2 1.51129 3.93096 -0.266359 17.228 4.43415 -0.758855
530 177 2 6.58825 1.4629 -1.66823 7.68071 -13.1011 12.5597
496 166 1 6.94831 1.14707 0.125274 16.2479 33.7236 -18.4544
603 201 2 6.50476 3.23854 -2.4423 0.490817 14.1615 -18.2152
57 19 2 3.4839 5.79153 -1.10816 8.5549 1.85008 -4.88009
56 19 2 4.7007 6.75119 -0.558916 -10.4465 -3.43257 -16.2029
55 19 1 4.32746 6.30047 -1.43805 -1.33719 0.403874 9.01952
296 99 2 3.00688 3.87117 -1.00353 10.0911 -23.4303 -10.3046
295 99 1 2.38715 4.44965 -0.47491 -26.1888 15.9089 10.8431
321 107 2 1.76738 2.69704 2.23909 0.987503 -8.30521 -13.6676
427 143 1 6.80011 5.64272 2.80256 -0.0651278 -21.5411 -8.04885
429 143 2 6.24617 4.82562 3.13104 18.6384 11.4154 2.89357
573 191 2 4.24822 2.4159 3.20453 1.37506 1.68375 -11.8771
319 107 1 1.8133 3.6819 2.50685 5.42911 12.0099 24.7704
485 162 2 -2.32018 -2.7842 5.08099 -7.2589 3.55213 13.0749
460 154 1 -3.68063 -2.60315 3.89928 16.8225 -4.51408 -7.91997
461 154 2 -4.52224 -2.04524 4.00104 -7.00344 5.60906 -5.77227
574 192 1 -5.73823 -0.477272 3.47238 17.805 -1.57827 -18.2256
484 162 1 -1.98298 -2.67316 6.05964 -5.71602 15.3897 -11.7306
576 192 2 -6.21798 -0.696989 4.3313 -14.1954 -2.91224 11.8377
62 21 2 -4.27311 -6.5023 6.15009 -2.12472 9.96685 5.07206
486 162 2 -1.81839 -3.57448 6.51158 3.42116 -17.9697 5.9322
326 109 2 -6.68901 -2.43839 8.79869 -22.7769 5.92307 -6.90281
192 64 2 -2.16797 -5.7465 6.68772 -2.56449 -0.991402 4.72388
402 134 2 -1.55298 -1.61031 7.31735 -5.30537 6.63954 4.36173
400 134 1 -1.40621 -0.860533 8.02255 22.927 0.0882284 -2.76643
240 80 2 -4.92826 -4.66654 9.52344 -11.8349 -13.4442 -9.32508
101 34 2 -5.91293 -1.83712 5.99247 0.969543 1.44903 4.76826
190 64 1 -1.37375 -5.15201 7.01198 11.6154 11.4103 2.16467
191 64 2 -0.710091 -5.77816 7.49377 -1.82207 0.593446 -2.42788
238 80 1 -5.69494 -5.19832 9.0161 15.2204 7.77515 7.95882
239 80 2 -6.10946 -4.56224 8.34009 0.877881 1.45984 3.55715
100 34 1 -6.90218 -1.76781 5.76023 -13.6648 -0.990547 5.84832
528 176 2 -0.979019 -3.6549 4.78135 -18.1167 -3.39717 26.0517
61 21 1 -3.28853 -6.66887 6.35282 -24.0071 -26.8372 -17.8527
493 165 1 -4.13178 -0.65106 6.72278 -6.80322 0.785291 -13.4915
494 165 2 -3.52828 -1.34152 6.29253 10.4855 -13.4615 3.73595
409 137 1 -6.1987 -7.08818 6.83692 30.4048 8.01397 25.369
411 137 2 -7.01903 -6.56629 7.11297 -13.4318 4.63332 -0.581284
410 137 2 -5.46585 -6.81183 7.53783 -21.0198 -10.3855 -19.4961
401 134 2 -2.03862 -0.890551 8.81413 -18.4914 -4.19957 2.41407
526 176 1 -0.412453 -3.75355 3.98076 12.467 -12.2983 -25.7902
577 193 1 -5.66272 -1.13628 8.81481 -0.311962 10.1629 9.73856
111 37 2 -0.77279 -6.95429 5.01104 8.49244 13.5267 -9.9747
578 193 2 -5.10618 -0.881572 7.97029 4.56876 -1.04793 3.11645
291 97 2 -0.338397 -0.78523 9.50628 4.30687 5.87196 -12.5424
434 145 2 -0.964958 -5.92432 9.68449 2.74635 -1.31794 5.94265
579 193 2 -5.5454 -0.392124 9.51084 1.99375 -3.2113 -5.09391
102 34 2 7.05483 -2.03793 6.5763 11.8282 1.75545 -6.18602
513 171 2 6.51107 -4.219 3.43262 1.29074 9.0157 -11.4875
155 52 2 6.64127 -5.2555 5.77643 -2.91012 11.1299 -19.5156
406 136 1 0.0240607 -7.20488 8.16533 9.17128 -9.47936 -5.9598
154 52 1 6.81374 -5.24989 4.74162 -4.44826 -32.9744 16.2681
325 109 1 6.92455 -2.82273 8.45214 1.25929 -16.7793 5.20732
112 38 1 5.95914 -5.22374 7.2277 36.5089 16.7657 10.041
114 38 2 4.98368 -4.95922 7.35352 -13.6253 5.41216 -9.97335
113 38 2 6.52932 -4.3728 7.46105 -18.5187 -14.2642 -1.50651
527 176 2 0.29698 -3.04944 4.1581 13.9492 12.0184 -2.63763
605 202 2 6.16898 -1.05358 4.90969 -16.9747 15.072 -12.5561
604 202 1 5.56147 -0.280572 4.53392 13.6931 -34.3159 2.68201
615 205 2 4.47992 -1.02848 3.35806 5.12698 4.70201 14.6315
403 135 1 1.18617 -1.75659 5.10053 -16.059 21.7336 17.5453
65 22 2 2.87717 -4.43461 7.66712 -21.697 -11.2542 15.2334
405 135 2 1.7944 -2.08342 5.82566 15.3505 -15.5019 0.445918
404 135 2 0.762501 -0.961207 5.60746 -0.638863 -8.21769 -18.788
66 22 2 3.40201 -2.86862 7.3519 5.19817 -11.2611 2.86897
581 194 2 2.58021 -4.36126 3.6665 14.7874 6.87559 1.86777
64 22 1 3.49771 -3.87949 7.0953 18.5068 12.1165 -15.1749
294 98 2 1.52363 -6.22187 8.80196 -6.06562 8.51053 1.351
156 52 2 6.7711 -6.27238 4.54631 7.40289 23.1207 -7.27962
582 194 2 3.54023 -4.28185 5.03274 -0.949145 0.789679 15.7331
580 194 1 3.43179 -3.93657 4.09018 -10.9471 -3.68978 -23.0717
588 196 2 5.08606 -6.02726 3.98366 1.08394 17.6109 1.91242
327 109 2 6.19975 -2.83276 9.19245 9.72375 7.35061 -4.52976
292 98 1 1.95473 -5.28913 8.85742 12.9228 -1.61234 3.15424
26 9 2 4.28949 -0.868761 8.35805 17.2776 15.4387 5.29338
25 9 1 3.51903 -1.42305 8.05896 4.69031 -37.8533 7.45008
27 9 2 2.79116 -0.818261 7.71945 -21.3045 27.2963 -10.4947
586 196 1 4.97591 -6.91203 3.51786 7.13716 -22.321 -12.1835
224 75 2 4.8029 -4.9421 9.33181 1.51139 -6.3565 4.11927
225 75 2 5.88016 -6.20122 9.33714 17.1823 -11.5172 -14.1167
408 136 2 -0.378429 6.41612 8.49847 5.93588 10.2187 -3.00276
77 26 2 -0.620208 2.02334 7.93876 13.1405 3.29844 3.16839
94 32 1 -2.9001 6.39169 4.04809 -4.50277 5.50297 36.3876
63 21 2 -3.18444 7.03533 5.74252 12.6187 8.90529 1.50227
96 32 2 -2.03685 5.84365 4.12795 4.12353 -7.13761 -11.6223
563 188 2 -5.08602 2.59277 6.58007 3.23266 8.3786 -5.77084
389 130 2 -4.07297 5.16273 4.22662 -10.3161 8.84818 -10.1483
388 130 1 -4.91236 4.58728 4.02242 15.1289 -18.3894 12.9103
443 148 2 -2.43058 1.33647 4.01422 4.5432 5.10839 15.4509
313 105 1 -0.902883 4.96405 8.66204 -13.0892 -1.19108 -9.24582
315 105 2 -1.33642 4.74876 7.74645 5.17298 2.384 15.5393
390 130 2 -5.64304 5.07019 3.51541 -7.19981 10.4458 -3.54784
213 71 2 -6.72707 2.09652 5.8041 25.3711 8.05628 3.96074
495 165 2 -3.90036 0.182422 6.18617 -3.69876 11.6529 3.90528
562 188 1 -4.71168 2.42808 5.6227 -15.8955 6.98771 6.94652
564 188 2 -4.70748 3.29727 5.0401 -9.82232 -5.60783 6.94976
589 197 1 -5.89259 3.22725 8.00401 -6.14837 32.01 -18.2043
110 37 2 -0.192396 6.21304 5.37355 14.22 -19.3825 -4.23516
23 8 2 -0.311459 3.85956 6.40465 -7.50535 13.7628 -25.2848
22 8 1 -0.46885 4.66264 5.73271 7.16477 -39.1061 -1.66729
24 8 2 -0.422097 4.29786 4.73114 -11.0798 15.0855 35.0064
442 148 1 -2.37244 1.72402 4.98446 30.3543 -17.925 -27.0778
591 197 2 -5.96939 2.64109 8.8593 3.73953 3.47587 3.18939
590 197 2 -6.23699 4.20141 8.16912 5.49859 -32.2645 -5.66891
78 26 2 -1.01428 1.9996 6.44135 -4.267 -4.89284 -22.6485
444 148 2 -3.32547 2.05472 5.14938 -15.9138 5.21861 12.983
76 26 1 -0.229917 2.28039 7.02602 -10.0795 1.28849 17.4568
138 46 2 -7.24423 6.00982 6.74829 4.27084 -2.45236 -13.1942
314 105 2 -1.59171 4.8995 9.42841 0.690881 -9.61326 -4.2848
416 139 2 2.20357 6.94013 4.1985 2.87718 1.43412 13.4289
417 139 2 2.61473 6.27568 5.67898 9.60096 10.8786 -16.6166
415 139 1 2.98728 6.82558 4.86341 -25.3887 -22.8698 13.843