ITEM: TIMESTEP
11500
ITEM: NUMBER OF ATOMS
648
ITEM: BOX BOUNDS pp pp pp
-7.2756537513565176e+00 7.2756537513565176e+00
-7.2756537513565176e+00 7.2756537513565176e+00
-1.6168119447459329e+01 1.6168119447459329e+01
ITEM: ATOMS id mol type x y z fx fy fz
489 163 2 -6.92739 -2.99061 -14.5867 12.844 -4.85568 -13.3356
487 163 1 -7.17389 -2.17861 -15.1712 -5.07632 -1.83463 27.9576
170 57 2 -1.38585 -4.3611 -13.3984 -19.2885 4.83749 -3.79301
172 58 1 -5.028 -1.98911 -11.953 6.15241 3.4344 -8.50451
173 58 2 -4.78226 -2.00127 -12.9658 -2.04944 -7.85516 16.9758
174 58 2 -4.78915 -1.08067 -11.512 -6.10437 -3.73452 -1.99312
169 57 1 -2.25961 -3.85224 -13.1157 23.8284 0.609102 -4.16984
631 211 1 -0.311155 -5.47946 -14.3317 -8.14518 5.5272 -3.22486
163 55 1 -5.11986 -6.76677 -14.7642 -7.76454 20.4941 5.84749
165 55 2 -5.61671 -5.87482 -14.6088 1.35525 -3.21724 0.952373
621 207 2 -1.25748 -1.88139 -9.83907 13.1457 1.37674 3.82928
208 70 1 -3.88682 -5.28476 -11.572 12.1296 5.14814 -18.5023
142 48 1 -6.22499 -4.37845 -13.75 -21.3627 -6.15541 -2.49665
224 75 2 -0.0771207 -3.56477 -10.8793 -2.33556 1.56479 -6.64254
143 48 2 -5.71167 -4.61412 -12.9248 22.3243 0.381256 17.1401
144 48 2 -7.19075 -4.69498 -13.5314 -1.47764 3.66432 -14.4956
171 57 2 -2.58825 -3.2395 -13.8777 -2.70961 -3.96153 3.90439
361 121 1 -3.99441 -1.68978 -14.4797 0.697609 15.263 -0.898428
164 55 2 -4.27832 -6.67466 -14.1907 4.05161 -15.5479 0.103383
362 121 2 -4.22292 -0.891814 -13.8998 3.79306 3.51201 4.13872
237 79 2 -3.31637 -6.69846 -12.5233 1.30628 17.8453 5.88
585 195 2 -0.0779955 -1.35968 -12.1293 4.36906 -11.6676 -5.90838
223 75 1 -0.698664 -2.77418 -11.0828 -9.07182 -10.9336 -9.01943
225 75 2 -1.289 -2.89988 -11.9255 4.8417 -11.066 4.8291
210 70 2 -3.1774 -4.64761 -12.0099 -12.5973 -9.08133 -4.26065
209 70 2 -3.89041 -5.0566 -10.5881 -1.47907 -3.74993 15.9675
11 4 2 -4.65701 -3.45274 -10.3688 -19.768 15.1491 0.939099
118 40 1 -6.91125 -6.85342 -10.414 2.08409 -1.61085 -2.77638
120 40 2 -5.96746 -7.06121 -10.7511 1.46023 0.588322 2.65373
141 47 2 -6.2792 -0.231492 -15.491 0.75615 -4.97075 -2.024
494 165 2 -1.7717 -6.23074 -15.6839 -0.576575 5.90945 9.59356
363 121 2 -4.18342 -1.30685 -15.4109 0.835249 -15.155 -3.72066
599 200 2 7.25201 -2.7425 -11.7922 5.49293 1.18531 3.12571
632 211 2 0.25071 -5.07093 -15.073 3.64302 -0.381424 -1.70176
633 211 2 0.060683 -6.40095 -14.104 7.11672 -2.50055 2.66607
488 163 2 6.81276 -1.70762 -14.4256 -4.00177 4.17919 -19.2407
598 200 1 6.64279 -2.47687 -11.0173 4.17848 18.2888 -11.1828
600 200 2 6.40832 -3.30927 -10.4816 -3.86228 -17.9417 13.8782
435 145 2 5.91936 -1.40212 -12.2675 -2.02159 -1.18315 -13.8616
434 145 2 5.80957 -0.106833 -13.3186 3.06791 -15.9939 1.1349
433 145 1 5.83469 -1.15267 -13.2744 -0.430351 26.113 10.8014
282 94 2 2.9976 -2.89947 -15.3251 1.98459 2.02152 -1.3598
280 94 1 3.60856 -3.30356 -14.613 -0.206133 -0.192242 5.24862
281 94 2 3.6502 -2.59156 -13.8691 4.79989 -5.11664 1.93733
584 195 2 0.043228 -0.367071 -13.4256 1.85268 -0.619263 -6.00519
583 195 1 0.259623 -1.31909 -13.105 -1.06182 19.6902 -5.52426
84 28 2 2.84772 -4.32348 -12.658 -5.14861 -14.0041 3.46132
82 28 1 2.54551 -5.25469 -12.326 4.47427 21.095 -1.94691
514 172 1 5.74908 -5.02109 -13.9962 9.78624 -3.70288 -3.77921
206 69 2 1.88714 -5.21781 -10.8172 8.58002 2.32239 8.43807
205 69 1 1.45576 -5.24911 -9.86826 -26.4902 -10.7709 -10.7922
83 28 2 3.21662 -5.94444 -12.6783 1.53949 -6.97664 -0.839837
515 172 2 5.3098 -5.94859 -13.8366 -4.23145 3.49853 5.96954
516 172 2 5.01903 -4.35192 -14.2583 -7.5529 7.47806 -1.41662
145 49 1 4.29029 -7.14235 -13.4767 2.89712 4.89869 -4.65352
123 41 2 6.4616 -0.895205 -10.4966 -3.19809 2.80728 -2.44211
14 5 2 1.24351 -1.38654 -14.7866 -4.70279 -1.63862 -8.52009
13 5 1 1.55539 -1.72657 -15.7112 0.266229 -3.5574 0.719012
191 64 2 6.76025 -5.32931 -10.1621 5.46892 -6.84628 4.80182
27 9 2 3.35116 -0.790478 -13.1245 -1.32619 -3.22501 8.10591
25 9 1 2.89575 -1.54291 -12.6 1.96654 -1.37049 -14.5855
449 150 2 0.830727 -6.78721 -10.5993 -12.1341 0.175775 -5.48827
26 9 2 1.94591 -1.72426 -12.9726 1.93225 7.46023 13.0103
626 209 2 6.14108 -5.9262 -15.7587 -9.15261 9.33225 16.8959
294 98 2 -2.33662 5.58987 -14.0956 2.6415 -5.9199 -1.71724
292 98 1 -1.48237 5.05467 -14.3253 14.2656 10.0353 0.519385
471 157 2 -4.17245 1.28965 -10.7734 0.236865 3.29595 -0.195339
469 157 1 -4.78735 0.476243 -10.646 7.04732 -11.6315 -1.40496
470 157 2 -5.52669 0.687351 -9.97613 -3.26427 8.74044 1.68498
129 43 2 -3.84288 3.38992 -11.5005 -13.061 5.4481 -11.9034
235 79 1 -3.14255 6.97937 -13.0099 -10.2009 -18.7294 17.7029
127 43 1 -3.14982 2.85622 -10.9788 -12.9578 -11.9087 2.7958
128 43 2 -2.27283 3.31196 -11.2667 15.1003 0.0722126 8.30995
622 208 1 -7.1738 3.16537 -11.6622 12.0162 19.348 14.4463
236 79 2 -3.62173 6.31745 -12.3664 10.4845 2.48854 -17.3694
646 216 1 -4.82132 4.31661 -12.5641 -23.4545 -3.52456 -13.4634
482 161 2 -0.353379 1.72943 -15.1602 3.2952 4.44167 0.841833
293 98 2 -1.59484 4.3496 -15.0674 -8.41656 2.70459 4.79666
199 67 1 -5.10979 2.84048 -15.2898 1.31051 11.3501 13.3459
647 216 2 -5.82577 4.24614 -12.3179 11.1426 -7.18657 5.99423
648 216 2 -4.86744 3.91194 -13.5183 12.3705 3.90149 5.61183
450 150 2 -0.722276 7.09624 -10.9651 3.30624 5.68747 6.52574
119 40 2 -7.19095 6.91576 -9.81682 -5.78211 3.22543 0.954119
342 114 2 -0.665834 5.0303 -10.8329 -4.30347 2.78734 9.14672
340 114 1 -0.87732 4.07872 -11.1219 17.9371 13.4577 -12.2645
341 114 2 -0.30467 4.00463 -11.9834 -6.60429 -15.833 7.11727
492 164 2 -4.90323 5.37961 -10.8503 1.08703 -10.9686 -7.68663
490 164 1 -4.53983 6.10366 -10.2487 -11.1533 2.63495 14.8457
139 47 1 -5.52134 0.350009 -15.8658 -18.1013 -11.9716 0.883986
200 67 2 -5.49123 1.8752 -15.263 7.35161 6.91508 -7.02784
122 41 2 6.67487 0.7059 -9.99596 5.14325 1.06734 2.69821
147 49 2 4.64088 6.63938 -12.8771 -11.1428 4.18684 -0.514416
612 204 2 5.14752 2.32751 -13.2027 3.16435 -2.72308 0.0264638
611 204 2 6.17187 1.78681 -14.3926 -3.34086 -5.02147 19.4356
610 204 1 5.95707 1.71557 -13.3598 -12.8997 -2.72581 -28.5825
623 208 2 6.94296 2.27974 -11.9634 -5.81286 8.08507 -7.2218
188 63 2 0.742659 7.04476 -12.7668 3.28101 -3.97557 19.6908
481 161 1 0.379811 1.24393 -14.633 -1.13621 -18.369 2.81982
226 76 1 0.628559 3.57121 -13.3364 15.1998 -15.4631 11.4459
228 76 2 0.133261 4.40949 -13.634 -2.14953 7.0215 -4.67162
227 76 2 1.53223 3.71273 -12.8574 -3.1599 9.60089 -3.43258
99 33 2 3.57444 5.04286 -11.2794 0.695553 2.79414 10.8305
97 33 1 4.45561 5.58227 -11.3922 9.76744 -9.65862 -2.08415
98 33 2 5.03139 5.47688 -10.5368 -9.27675 9.11393 -6.12644
189 63 2 0.161281 6.17731 -14.0644 0.632247 -1.64764 2.41869
187 63 1 0.99436 6.61052 -13.6527 -7.85877 -0.00983006 -26.9029
539 180 2 2.64005 3.43816 -15.4752 -2.97409 1.16235 0.618564
298 100 1 3.58154 3.96022 -13.385 10.1753 22.0035 -5.07026
299 100 2 3.43613 4.4385 -14.271 1.66517 -3.90806 -4.2617
300 100 2 3.96357 4.72043 -12.7818 -4.29089 -20.6888 -0.618237
58 20 1 6.20133 1.65006 -16.0714 6.94823 -1.86353 -34.619
624 208 2 6.73176 3.92423 -11.4285 -3.47008 -14.6651 -2.26986
146 49 2 3.69766 7.14405 -14.2719 1.32274 -9.72101 7.07396
483 161 2 0.797818 1.89841 -13.9542 -9.24554 6.55169 -5.98252
463 155 1 2.32029 4.06605 -10.7361 3.81257 1.39843 -14.9403
465 155 2 2.64075 3.09852 -10.6422 -1.96659 -0.669047 7.90242
479 160 2 2.89501 0.275248 -9.8698 -0.332622 11.6268 -4.29893
480 160 2 4.28559 0.678849 -10.5534 22.214 -2.05896 -8.06176
121 41 1 6.03546 0.0501359 -10.4407 -5.80573 -0.279718 3.72875
448 150 1 0.294831 7.00632 -11.0706 1.27142 3.47141 7.37785
464 155 2 2.09561 4.55258 -9.8741 -4.69376 -3.00377 11.4653
478 160 1 3.43832 1.09183 -10.1847 -19.8838 -7.3501 13.1779
78 26 2 6.99852 5.24592 -15.6837 6.03218 0.969006 -4.11541
620 207 2 -1.18528 -1.9987 -8.15959 -10.0957 -1.70023 3.68081
619 207 1 -0.934936 -1.42574 -8.96199 -14.0156 6.88039 14.5001
634 212 1 -4.06823 -0.388774 -7.7463 13.843 -13.3888 9.26664
636 212 2 -3.99243 -0.259306 -8.75298 -4.47019 6.20457 -3.56158
639 213 2 -3.09072 -4.06815 -8.68708 15.3501 -19.0269 -2.38636
32 11 2 -1.96197 -6.7313 -8.84882 2.96211 -6.38832 3.138
149 50 2 -6.12582 -4.97403 -5.79072 4.03699 7.98624 -1.12291
319 107 1 -2.32586 -2.83779 -4.33733 -2.70746 -1.91243 -6.26667
12 4 2 -5.88635 -3.19016 -9.12228 -0.461674 6.44862 -10.8948
10 4 1 -5.11044 -3.73469 -9.49063 17.1585 -18.1223 8.9978
39 13 2 -5.2149 -1.24002 -3.94093 -0.130929 14.9038 -0.749409
307 103 1 -4.92429 -6.51671 -7.97293 -5.1822 43.5198 -0.797161
309 103 2 -4.54601 -5.76942 -7.356 -7.22799 -18.254 -2.27592
38 13 2 -6.44177 -0.438728 -4.84983 10.6966 -4.08855 3.39163
37 13 1 -6.20675 -1.2043 -4.18593 -15.3536 -7.14267 -1.97594
635 212 2 -4.97905 -0.14117 -7.3648 -8.09413 6.35128 1.04738
321 107 2 -1.84361 -2.62167 -5.21999 -5.72065 -3.75181 7.30772
320 107 2 -1.69153 -3.19301 -3.61764 6.71337 2.32663 2.33285
308 103 2 -5.37917 -5.91927 -8.68492 3.77776 -16.6621 4.05894
425 142 2 -3.30589 -1.97746 -7.33517 -2.13475 9.38903 -1.89059
424 142 1 -2.76523 -2.82219 -7.1235 -6.25258 -5.62678 7.91623
426 142 2 -3.37463 -3.42018 -6.53891 5.58941 6.18685 -4.99798
637 213 1 -2.4028 -4.79851 -8.98975 -7.61791 14.1289 -2.14658
638 213 2 -1.4852 -4.35835 -9.03827 -2.90293 -2.97182 0.627897
21 7 2 -7.24743 -2.65697 -3.42597 -10.244 -1.37752 -13.6666
270 90 2 -0.733227 -0.152373 -5.55256 -0.87497 5.95587 5.29167
148 50 1 -5.14046 -4.6956 -5.90341 6.34089 -0.476804 -6.30854
150 50 2 -4.53135 -5.16511 -5.22374 -5.00846 1.23645 10.712
558 186 2 -3.48154 -1.6414 -3.56854 12.5839 -5.23425 -5.80745
306 102 2 -3.69976 -6.73393 -4.10045 4.46815 -1.49055 16.209
557 186 2 -3.04481 -0.12308 -4.10709 2.07027 2.47653 -2.91391
556 186 1 -3.5874 -0.63938 -3.40705 -6.67612 7.43595 11.9206
304 102 1 -3.90666 -5.81928 -3.69061 -6.39017 11.3138 -11.2476
207 69 2 2.11412 -5.18208 -9.08156 12.6224 7.48777 -7.50681
190 64 1 6.21051 -4.67475 -9.5867 -10.8461 -5.88295 -0.193545
192 64 2 5.38021 -5.19385 -9.27876 2.15509 8.04368 -1.63153
229 77 1 5.81223 -6.3265 -3.91082 16.9167 -14.1174 -11.2474
230 77 2 6.20533 -5.5503 -4.45705 -10.19 8.28139 6.45691
336 112 2 6.40973 -5.30336 -7.08179 -9.66791 6.40627 -22.3697
334 112 1 6.52828 -4.7016 -6.29025 20.3733 -12.9472 32.7191
81 27 2 3.79618 -3.56318 -8.54459 -1.82119 14.4549 15.1178
89 30 2 2.78782 -1.39458 -8.14704 -18.5417 3.21536 -0.754475
90 30 2 4.31652 -1.48572 -8.64936 -2.30444 -6.60046 9.62421
88 30 1 3.6683 -1.8843 -7.95325 26.0623 14.9974 -14.1103
19 7 1 6.50905 -3.28946 -3.64993 13.5372 20.6758 5.84555
231 77 2 5.03687 -6.09214 -3.28542 -3.46876 9.63126 0.872221
79 27 1 3.49754 -4.49919 -8.28308 0.577036 -39.5451 -24.1381
80 27 2 3.38212 -4.72614 -7.30993 0.588712 8.53198 16.3356
335 112 2 6.09828 -3.78105 -6.22913 -9.77411 1.41167 -10.6778
261 87 2 4.19848 -1.77464 -4.99825 4.65226 -3.47647 2.14285
259 87 1 4.64097 -2.496 -5.58642 -2.29327 9.64438 -10.7021
283 95 1 1.67545 -2.7531 -5.43741 -19.0974 -7.78547 -1.23649
285 95 2 2.48402 -2.42574 -5.90805 31.7085 2.37952 -9.81477
272 91 2 2.6318 -6.78021 -6.08011 -5.74289 3.99744 -3.87532
548 183 2 1.57544 -4.24003 -5.81967 7.39888 -11.9283 -0.114493
547 183 1 1.51275 -5.28313 -5.9261 -0.522676 11.8342 -4.35863
549 183 2 0.523654 -5.4283 -6.08228 -3.46146 -10.4548 -1.44891
260 87 2 4.36682 -2.30439 -6.58092 3.41603 -1.04194 12.1485
284 95 2 1.02826 -1.98498 -5.63466 -13.0195 9.10275 10.5589
269 90 2 0.423765 -0.25588 -4.38466 3.66073 8.27705 19.8629
268 90 1 0.217627 -0.499164 -5.32834 -7.19894 -13.6359 -25.7735
20 7 2 5.99744 -2.8218 -4.42183 -0.181026 -12.9665 8.32562
181 61 1 1.45326 -0.603917 -8.6439 29.0129 -3.72975 -6.61536
183 61 2 0.525612 -1.03597 -8.81003 -9.87488 -0.780092 -2.64998
414 138 2 1.52046 -4.18377 -4.10229 -0.53671 2.00219 13.0422
328 110 1 3.93745 -0.214898 -3.92768 -15.5746 -9.13758 -6.96081
330 110 2 4.93815 -0.0484625 -4.01902 1.09321 8.65381 -1.08787
105 35 2 -3.64713 2.97201 -9.45411 -17.4462 -14.6577 -0.637887
31 11 1 -2.17932 6.87796 -9.19066 13.3082 28.4926 -2.09769
33 11 2 -3.09992 7.07505 -9.58837 -7.7714 -20.5806 -2.3466
505 169 1 -6.44919 0.716842 -6.20269 1.58767 25.7743 -16.1221
246 82 2 -2.86518 0.419884 -6.24067 1.56201 0.262812 -1.53683
244 82 1 -2.20543 0.703 -5.50493 -13.8903 -0.819931 -0.268423
245 82 2 -2.27237 1.74449 -5.42916 8.67169 -10.1039 -3.85736
507 169 2 -6.92711 1.02896 -7.05378 -4.37903 -21.0943 -4.75849
153 51 2 -7.21985 6.98022 -3.38686 -5.52739 9.78783 -5.18864
506 169 2 -6.11211 1.69869 -6.11223 6.42332 -7.95542 23.8017
103 35 1 -4.03442 2.86005 -8.49143 12.8501 2.45696 -26.3212
104 35 2 -3.25923 3.36382 -8.09433 -0.267806 5.39164 25.2654
85 29 1 -4.80544 5.45319 -7.43499 -0.158311 6.39725 13.6486
86 29 2 -4.3343 5.29923 -6.52778 -5.04365 -0.552958 -3.23077
87 29 2 -5.06002 6.46048 -7.38771 5.22659 -4.14642 -13.5465
24 8 2 -5.58354 3.98131 -6.77767 2.09591 3.57966 3.86881
22 8 1 -5.88249 3.35808 -6.01483 10.0582 -8.74651 14.6264
645 215 2 -1.94235 4.22196 -5.36688 -10.8713 13.1313 17.7236
312 104 2 -0.905926 3.43493 -9.19202 -6.66022 12.7283 -12.6426
310 104 1 -0.751014 3.63604 -8.20721 10.7696 -26.6837 3.89902
23 8 2 -5.31654 3.53445 -5.14729 -15.7616 0.769217 -19.1309
644 215 2 -1.30509 3.52554 -6.61161 1.45145 -11.0016 -2.65314
643 215 1 -1.67791 3.30595 -5.67189 3.96073 4.04058 -12.4208
67 23 1 -6.60373 1.74766 -8.73293 23.6505 9.35354 -4.68862
491 164 2 -4.67007 5.82163 -9.24803 6.45801 4.68092 -12.9524
311 104 2 -0.25509 2.75022 -7.93449 -1.97215 13.9372 8.63101
69 23 2 -5.70214 2.2912 -8.62055 -14.9371 -15.3852 0.818144
590 197 2 -3.59755 5.19449 -3.93408 -5.27737 -5.08494 -13.1692
589 197 1 -4.31779 5.40943 -4.66754 9.68605 12.0084 27.1687
591 197 2 -5.10189 5.71321 -4.07199 -1.27414 -8.6691 -11.094
95 32 2 -6.62057 2.94515 -3.59362 15.3219 -1.30827 5.64194
563 188 2 -0.598731 2.64602 -4.40047 2.14339 4.23548 -2.37413
7 3 1 0.997308 5.84289 -8.58803 29.68 11.5576 1.23867
68 23 2 7.21444 2.44395 -8.79796 -9.28248 6.58672 -1.33578
456 152 2 5.99189 6.98819 -5.7255 1.16485 1.18239 11.8064
476 159 2 0.541127 0.511807 -7.08695 -8.63323 1.45375 -7.47475
9 3 2 0.825129 6.38989 -9.4486 -11.984 -13.5605 7.51186
273 91 2 2.46739 6.62808 -7.29807 -5.2731 0.0950807 -0.862451
271 91 1 3.02636 6.9138 -6.4877 2.89992 -6.2207 4.14657
8 3 2 0.275066 5.18792 -8.28168 -13.553 -2.27849 -7.77939
43 15 1 4.95242 3.11308 -8.97722 -11.9214 -6.27794 7.81295
45 15 2 4.79724 3.14809 -7.95498 7.51602 -1.72851 0.000371161
44 15 2 4.36463 2.32656 -9.31929 7.79095 8.96237 -3.35756
454 152 1 5.54058 6.11596 -5.98648 -3.81555 -6.9516 -11.2733
617 206 2 2.03766 2.12996 -4.52521 -3.59552 9.58081 1.84792
618 206 2 3.35807 2.58873 -5.57881 -3.76748 -4.21489 5.12278
616 206 1 2.70682 1.85491 -5.25102 2.6636 -7.98195 -6.79474
455 152 2 4.55419 6.3208 -6.21226 -5.38771 4.93522 6.1752
179 60 2 3.48822 4.88825 -3.78106 12.4275 -9.48286 9.15699
178 60 1 2.76583 5.57784 -3.67855 -14.7998 8.07994 -21.7614
477 159 2 1.21715 1.71941 -6.45041 1.96682 12.1644 -3.90454
475 159 1 0.62192 1.51992 -7.26385 7.50686 -1.9338 13.2198
180 60 2 2.68746 6.01495 -4.60606 0.850929 3.67395 7.81679
182 61 2 1.34122 0.394735 -8.8047 -5.1307 7.09269 5.20778
502 168 1 5.67595 5.93905 -8.75144 -15.235 -19.216 5.4648
503 168 2 5.55831 6.33971 -7.81295 8.93704 -0.909834 -4.23625
504 168 2 5.26957 4.98859 -8.63503 13.0851 10.5156 -10.1688
445 149 1 5.01733 3.2113 -6.19087 -5.79219 -2.40637 5.26939
446 149 2 5.50607 2.61068 -5.51114 2.8784 -1.79762 -0.473641
447 149 2 5.28578 4.16651 -5.94799 5.86263 9.00744 -2.16089
601 201 1 6.18437 1.87344 -3.80709 -1.73029 -23.317 -18.293
329 110 2 3.3798 0.50715 -4.4321 11.2117 -0.639674 0.903405
564 188 2 0.626383 3.51166 -3.65149 -14.8058 -12.9157 3.24241
35 12 2 1.03215 5.44258 -3.38022 -15.2683 -7.26968 6.04967
562 188 1 0.300798 2.55536 -3.9037 14.0232 1.10622 2.5427
444 148 2 -0.372136 -7.06308 -0.248583 -0.827843 7.4859 -5.21642
594 198 2 -5.84237 -3.85998 -1.3631 -13.3712 -6.86933 -8.29555
339 113 2 -4.56097 -1.42503 2.27946 -11.8972 -8.67599 -2.01441
350 117 2 -5.29296 -3.55728 1.91725 7.18545 16.8284 3.66812
349 117 1 -5.00171 -4.4833 1.58065 0.5023 -12.9039 -9.98649
351 117 2 -5.00769 -4.46531 0.5634 3.13034 -0.96709 1.58
337 113 1 -5.43485 -2.01463 2.45203 -14.0641 -8.02508 6.8523
238 80 1 -4.46603 -3.50598 -2.04662 -12.4368 1.53962 13.9483
240 80 2 -3.57721 -3.20603 -1.6635 11.3367 1.46698 -11.1654
239 80 2 -4.57498 -3.77042 -3.03142 18.1501 2.17278 -1.45172
167 56 2 -6.41036 -4.82634 2.14768 5.23754 -7.91416 0.830497
521 174 2 -2.3573 -6.6921 2.39552 -1.69687 -2.24892 -3.34156
537 179 2 -3.36835 -0.650748 0.93356 6.8166 5.71755 -0.799611
535 179 1 -3.43966 -0.704689 1.95201 29.4222 12.9475 -3.63814
592 198 1 -6.79617 -4.30069 -1.40391 1.61843 2.58024 6.76635
520 174 1 -1.40728 -7.04554 2.48617 -3.17026 19.4717 0.183765
91 31 1 -1.92896 -4.52563 -0.425595 -7.05554 7.31172 23.3835
93 31 2 -2.68757 -5.19484 -0.574816 7.28197 -8.4152 -7.52765
593 198 2 -7.19713 -3.96322 -2.29395 -8.17671 -6.80882 2.16459
279 93 2 -6.60059 -0.883225 1.12798 -1.84329 1.16744 1.55687
277 93 1 -7.22153 -0.532026 0.392807 -14.237 -6.42864 -2.38705
92 31 2 -1.58279 -4.04006 -1.25072 9.42403 2.80761 -7.70307
420 140 2 -6.16786 -5.97995 -0.954045 -5.6572 18.7427 6.67299
418 140 1 -5.84173 -6.84239 -0.526067 -5.02261 -4.7529 -11.003
522 174 2 -0.890116 -6.14417 2.65098 0.536765 -15.4351 2.70998
608 203 2 -0.290886 -2.14745 -1.9948 11.0445 -6.16629 -2.5713
607 203 1 -0.564677 -3.10698 -2.20298 -22.7092 -5.21129 -8.08055
305 102 2 -3.6871 -5.65296 -2.69782 3.06728 -18.7175 -7.80439
347 116 2 -3.86743 -6.9654 -0.278942 -19.3058 0.178302 0.146931
346 116 1 -3.05283 -6.88352 -0.871921 16.0715 -15.3724 5.73165
536 179 2 -2.60633 -0.30369 2.4259 -7.29792 2.29741 -4.70293
605 202 2 6.56684 -0.230462 -0.980756 2.14705 1.56499 -11.3605
606 202 2 5.56828 -1.01053 -2.10142 6.44758 9.0265 5.32048
567 189 2 5.9881 -4.41086 -0.655821 25.5959 5.11143 -9.46785
166 56 1 7.25222 -5.0527 2.62711 -6.3529 16.576 -1.36808
168 56 2 6.99609 -6.01524 2.51871 -4.84826 -15.3498 0.351545
278 93 2 6.34589 -0.794805 0.58584 9.76384 0.816182 8.6126
566 189 2 5.6009 -5.32788 0.711229 -0.609982 8.2212 -9.8884
413 138 2 2.18432 -5.15558 -2.9714 2.05899 -1.89345 8.52009
523 175 1 2.62458 -0.415326 -1.53613 -0.643685 -7.67873 -36.8061
412 138 1 1.43059 -4.47607 -3.11459 7.02786 -3.86057 -13.605
565 189 1 5.24709 -4.77471 -0.0828262 -29.2005 -13.4239 19.9759
524 175 2 3.10516 -0.353021 -2.47737 -7.7471 -1.44294 22.3486
609 203 2 0.160178 -3.7802 -2.56351 7.92855 17.3259 5.96638
525 175 2 2.59372 -1.3919 -1.22817 1.97291 -0.870964 0.939197
195 65 2 4.79972 -1.90044 1.83835 16.8424 2.42872 5.55756
157 53 1 2.5678 -3.2555 -0.256653 5.39683 5.29038 -2.49595
158 53 2 1.81806 -3.75337 -0.745104 4.74703 -0.13441 2.24768
159 53 2 3.36517 -3.88024 -0.0865055 -2.60768 -0.372028 -2.46693
303 101 2 6.39577 -3.53635 2.56301 4.3712 2.87764 6.79563
301 101 1 5.61874 -2.93053 2.87589 -8.37217 -10.9496 -3.59758
302 101 2 4.88282 -3.62134 3.00481 -3.94603 2.13821 5.90923
194 65 2 3.83089 -1.86805 0.598724 -14.6413 -3.45983 -15.7034
193 65 1 4.56225 -1.32213 1.02155 4.78569 1.47969 9.17987
386 129 2 4.19618 -5.58224 -1.23476 -0.528694 -10.853 -6.36392
604 202 1 6.04907 -0.130278 -1.88323 -5.33206 -8.07247 -3.64719
385 129 1 3.74119 -6.06181 -2.03803 -0.304402 -0.0268285 -2.57446
387 129 2 3.78875 -7.09273 -1.98939 0.133927 8.84946 7.45173
151 51 1 -7.02566 6.1988 -2.77461 -1.59016 3.74987 3.10887
442 148 1 -0.0376131 6.561 -0.485379 -1.67483 -0.185383 -3.37413
94 32 1 -5.67063 3.03222 -3.18866 -11.9695 -5.14977 -5.40916
96 32 2 -5.4154 2.1866 -2.68383 -1.11706 2.41676 -1.9901
374 125 2 -0.468305 6.18845 2.11867 6.04413 3.69374 4.22627
215 72 2 -1.85882 0.595456 -1.14831 -4.48041 10.7497 15.0905
419 140 2 -6.02696 7.08604 -1.3164 -0.912638 -14.4625 -0.579647
214 72 1 -2.80871 0.561119 -0.71289 18.0916 -17.9642 -20.6607
375 125 2 -0.29548 4.56603 2.12397 2.47549 -2.51601 1.56799
486 162 2 -1.49195 5.14026 -2.77571 -14.0201 -11.9607 5.88049
484 162 1 -2.50562 4.86662 -2.71989 -4.14557 9.5352 -15.7543
348 116 2 -2.41274 6.91666 -0.569826 -5.18311 8.10319 -11.1162
110 37 2 -6.19295 4.60435 0.417174 -1.01669 -6.20179 -5.16492
111 37 2 -6.00969 3.01353 0.0528041 6.37105 -1.94618 0.813741
109 37 1 -6.60462 3.82297 -0.140635 -7.18114 -1.72045 0.340153
570 190 2 -3.5048 3.92458 0.00133676 -2.53533 -3.94632 4.73263
569 190 2 -2.60796 4.59179 1.22647 -2.98385 -3.5657 -6.80108
254 85 2 -5.05113 1.75165 1.71834 -13.7447 -9.57751 14.5755
568 190 1 -2.63959 4.42912 0.208043 2.64841 3.20923 8.09321
253 85 1 -4.55552 2.15124 0.944958 12.7602 5.96767 -15.803
485 162 2 -2.90182 4.7631 -1.78446 12.7827 0.403323 4.15532
255 85 2 -3.85232 1.4635 0.635491 -3.55855 5.55951 -5.62471
216 72 2 -3.2055 0.0335944 -1.49785 -17.9778 4.24904 4.05547
115 39 1 -0.325347 2.91248 0.192827 -11.4725 -0.271844 -6.32129
117 39 2 -1.15112 3.5304 0.147905 0.748212 7.12301 2.91296
222 74 2 -2.42723 5.70914 3.18677 -1.27351 16.5438 -5.1167
220 74 1 -2.24166 4.72336 3.21006 -9.06294 -16.8335 12.6272
133 45 1 -0.372824 0.735551 -1.81481 31.8323 -1.65319 -6.96947
116 39 2 -0.629815 2.14832 -0.417272 6.99146 -4.77612 -1.70031
371 124 2 -5.88025 5.80536 2.23483 -3.30552 5.52102 -4.46009
370 124 1 -5.56973 5.72589 1.26804 6.11295 -6.73346 7.3277
400 134 1 -6.50569 0.845869 3.01433 14.2306 -9.45624 4.96006
16 6 1 -1.42438 0.780956 3.1889 12.3909 12.5889 4.87757
18 6 2 -0.727403 0.890776 2.4563 -4.35522 -1.82642 -5.41621
372 124 2 -5.91073 6.44036 0.603125 3.10204 10.0447 5.97418
443 148 2 0.328068 6.17002 0.383568 2.76245 -8.34749 2.66227
152 51 2 6.61391 5.72665 -2.6811 12.4649 -7.18863 3.66739
373 125 1 0.240604 5.43237 2.05411 -0.433422 2.22233 -3.72211
545 182 2 2.04338 5.38255 2.10999 5.37675 2.75706 3.38931
409 137 1 5.70184 2.33699 0.805948 -20.9542 10.5233 14.8764
410 137 2 6.46708 1.96794 0.296826 21.0835 -22.6378 -11.9737
602 201 2 6.04318 2.62335 -3.16047 -6.77355 28.504 19.7137
603 201 2 6.15468 1.02028 -3.22849 6.48366 2.32225 4.8333
34 12 1 0.0891047 5.18518 -3.00104 35.1901 21.2478 5.88034
36 12 2 0.121953 5.63586 -2.06617 -6.19236 -2.74091 -2.61997
135 45 2 0.0661617 1.2636 -2.59915 -18.362 5.74514 6.13395
134 45 2 0.465458 0.298791 -1.40813 -7.14147 0.874837 2.96391
544 182 1 3.05653 5.40926 2.3234 -8.65678 -5.17714 -3.16667
550 184 1 3.1353 1.07188 0.48838 -4.73201 20.6936 2.40823
551 184 2 4.13034 0.918982 0.679046 3.23368 4.44056 -0.494924
552 184 2 2.96974 0.705454 -0.467399 -2.45289 -12.4293 1.56811
614 205 2 3.20747 5.00266 -1.12587 -2.69022 0.493043 1.0591
546 182 2 3.28215 4.609 2.90882 0.595352 1.25345 -1.60326
315 105 2 6.75787 3.89919 -1.47953 1.98063 2.76051 -3.28088
313 105 1 5.89291 4.01971 -2.037 -7.28836 -3.32212 17.4991
368 123 2 2.69307 2.59731 -0.579267 -5.53483 -1.20955 -6.05713
369 123 2 1.1529 3.22171 -0.880675 7.88744 -5.20798 -3.21465
367 123 1 2.06732 2.98323 -1.30039 -0.508155 9.06311 10.3683
314 105 2 5.17723 4.38846 -1.36606 9.58526 0.682663 -20.4219
411 137 2 5.90483 3.32432 0.77269 -1.16123 8.65518 3.09249
615 205 2 4.05933 5.528 0.260314 -7.84841 1.75449 -8.91196
613 205 1 4.02761 5.49869 -0.77122 3.934 -1.82719 14.2586
3 1 2 2.56877 1.04424 3.12721 2.48505 4.15947 -10.2073
364 122 1 1.40691 2.28753 2.14216 4.3361 -11.0744 -13.371
366 122 2 2.07715 1.80778 1.49529 0.211348 3.84104 11.571
365 122 2 0.728364 2.6682 1.46078 -3.47676 1.41208 4.63717
1 1 1 3.49086 0.611967 3.21111 4.091 -19.7927 7.82839
248 83 2 5.37648 2.44894 2.97096 5.89296 -0.368771 10.2273
2 1 2 3.77538 0.0685922 2.37418 -6.57785 12.5489 6.85181
338 113 2 -5.56781 -2.02184 3.45964 -6.1208 0.998583 1.14019
359 120 2 -2.43118 -1.3773 5.42617 -5.07 -6.17379 2.03098
358 120 1 -3.21329 -1.09411 6.04104 3.17502 3.3115 -11.0769
332 111 2 -2.29426 -6.95126 5.62648 -6.75944 8.43798 -1.48186
579 193 2 -0.649326 -4.59655 7.52741 5.71939 -5.13451 0.709301
333 111 2 -3.79943 -6.17208 5.40451 -10.6882 -5.39728 1.78906
331 111 1 -2.802 -6.06411 5.50961 20.1092 -7.31633 2.92855
126 42 2 -3.30325 -4.61102 6.77701 5.56771 1.10203 -4.34486
250 84 1 -5.72288 -5.66535 5.41229 20.8515 -1.15246 0.403186
251 84 2 -5.33897 -4.82253 5.84498 -4.65646 4.95865 11.0734
125 42 2 -3.45158 -2.91366 6.61916 -4.02731 -1.74833 -2.02538
124 42 1 -3.92866 -3.80423 6.80915 -5.0145 1.17203 1.53634
252 84 2 -5.3434 -5.6493 4.47283 -12.1581 -1.08232 -8.12916
533 178 2 -1.19646 -1.37379 8.21731 -0.807627 -4.37628 6.83931
532 178 1 -0.680715 -2.14795 8.66995 -10.2118 7.37975 -8.76042
510 170 2 -2.14047 -4.10111 8.69553 -1.67184 8.62103 -3.36377
508 170 1 -1.90624 -5.08382 8.74943 2.52176 3.25919 -19.6421
596 199 2 -1.48423 -6.79542 7.9305 2.96925 18.4173 -3.19165
62 21 2 -0.505796 -5.20934 4.5358 0.264881 3.39671 0.48748
61 21 1 -0.212568 -4.89541 3.61151 -8.02095 -6.22544 -2.66683
575 192 2 -5.50644 -7.03934 7.52387 -1.51704 -8.05726 -7.05095
397 133 1 -0.835354 -2.231 5.30565 -21.6204 11.277 -7.43894
399 133 2 -1.06015 -2.78947 4.47421 12.3393 -2.94399 4.76977
402 134 2 -6.86966 -0.0131859 3.42593 -17.6039 -2.49434 -1.89821
360 120 2 -2.71854 -0.460154 6.67764 0.713507 4.21907 12.4443
379 127 1 -5.276 -1.06254 8.10706 -7.18093 1.54925 17.1897
381 127 2 -6.22031 -0.659302 8.2803 16.5522 -3.67263 -13.596
380 127 2 -4.8092 -0.939199 7.20372 -9.68206 1.00966 -0.337126
175 59 1 6.99414 -1.34362 4.66005 -19.7954 -25.2583 7.51258
176 59 2 7.16021 -1.7536 5.58554 1.79875 8.62549 -8.95443
578 193 2 0.900615 -4.02882 7.69518 1.2629 6.54708 -1.52858
577 193 1 0.306612 -4.63851 7.14346 0.839814 -4.82741 1.11533
534 178 2 0.272435 -2.0663 8.27986 5.64355 -1.98119 8.10023
177 59 2 6.22465 -1.9376 4.24179 24.0469 20.5322 -1.80812
63 21 2 0.809329 -4.65366 3.65768 -8.16441 1.48671 3.04261
5 2 2 3.07079 -1.07881 4.09171 9.57463 -8.26985 15.3674
4 2 1 3.24439 -1.79877 4.82153 -7.54755 3.12497 -27.4246
6 2 2 3.26259 -1.32773 5.71956 0.134762 8.37047 8.31542
398 133 2 0.0251042 -2.46653 5.77186 11.8644 -11.9694 -2.11375
256 86 1 1.90731 -1.92415 8.06661 -4.37313 -14.4219 13.363
258 86 2 2.45177 -2.11655 8.91871 -0.449981 5.01697 -9.6002
286 96 1 4.36561 -0.926566 9.59052 -1.78508 -4.27816 -1.98921
257 86 2 2.24474 -1.04969 7.65628 5.93311 7.27091 -7.05701
296 99 2 2.53079 -4.84091 4.92769 3.05279 2.78816 1.07239
295 99 1 2.18556 -4.26322 4.16581 8.26154 -3.92713 -6.32175
297 99 2 2.66068 -3.35406 4.11742 2.09756 3.92797 11.2996
572 191 2 3.7897 -6.47277 6.63489 -11.9239 5.092 4.67031
571 191 1 4.74436 -6.78277 6.50355 19.6705 -13.2304 -12.0091
573 191 2 5.46544 -6.38017 7.14462 -12.4905 4.05503 1.72799
511 171 1 4.81462 -6.7886 3.30255 16.7821 8.2835 2.04796
513 171 2 5.3722 -6.78241 4.15801 -5.14675 0.727775 0.387054
325 109 1 1.96054 -7.05869 6.65289 2.84013 -2.76243 4.02391
326 109 2 1.3872 -6.37388 7.1353 -8.52308 8.18359 -3.73213
500 167 2 6.68337 -5.2689 9.08102 -1.02831 2.27792 1.91674
501 167 2 7.15274 -6.69523 8.28078 3.24373 0.256979 3.67418
440 147 2 1.93332 -5.77929 9.18812 -4.5145 -3.42177 7.61642
288 96 2 5.22768 -0.583896 9.12297 -1.63723 -0.81705 6.38483
499 167 1 6.40518 -6.02312 8.42051 -0.0969726 -9.72609 -9.81287
559 187 1 -0.587705 6.09644 5.33445 -13.0647 -17.7226 -23.2087
560 187 2 -1.00633 5.44815 4.6603 -14.2042 -9.83912 15.5004
221 74 2 -2.89534 4.31605 3.935 11.8658 4.43264 -11.0655
452 151 2 -6.73077 4.49044 5.69035 -14.8941 3.16791 0.683079
595 199 1 -1.29742 6.77627 7.75116 0.410203 -27.754 4.6093
401 134 2 -5.53654 0.790682 3.41212 -7.28267 12.3498 -4.79813
574 192 1 -5.50473 6.61413 8.02112 0.65286 29.3576 -3.53562
576 192 2 -5.24156 6.94322 8.96149 1.56659 -4.48247 6.34284
291 97 2 -4.22897 5.62131 7.97821 -7.71571 5.33692 4.58242
289 97 1 -3.33899 5.11815 8.08223 6.17072 -20.2299 -10.1904
290 97 2 -2.557 5.76176 7.8824 4.50169 4.65184 7.368
17 6 2 -0.923022 1.18788 4.00732 -10.9779 -14.7675 -1.53691
597 199 2 -0.877088 6.49737 6.8349 -3.48146 15.0886 2.73527
451 151 1 -7.198 5.19459 6.30029 16.7432 -7.16868 -9.35308
453 151 2 -6.43684 5.83307 6.55617 -9.61702 -0.235049 10.5131
431 144 2 -1.16616 0.657975 8.58641 -5.61222 -12.6674 -22.518
430 144 1 -1.9101 0.276618 7.94325 5.03105 16.5753 39.4007
50 17 2 -3.33143 1.29678 4.20083 5.25538 3.1531 -14.9161
51 17 2 -4.30639 0.483818 5.11965 -6.21603 -7.65342 -0.632868
317 106 2 -4.68148 3.58216 4.98377 14.2592 13.9694 10.7237
316 106 1 -3.78199 4.05997 5.23219 -9.13506 -3.58876 16.6649
49 17 1 -4.31061 1.02919 4.25877 15.6392 4.12941 21.2345
318 106 2 -3.69645 4.26986 6.25258 -6.07716 -7.587 -19.8865
417 139 2 -3.03054 3.67212 9.04973 10.6173 5.01739 1.27815
415 139 1 -3.07156 2.79137 9.57702 -14.2773 1.5565 -8.53324
416 139 2 -4.08024 2.60657 9.4555 -0.95463 -10.8147 9.22338
432 144 2 -2.74037 0.566729 8.4847 3.13858 -3.20967 -13.0143
100 34 1 -6.39872 3.44489 4.42206 0.351162 15.4074 9.93933
353 118 2 -0.564263 4.16147 6.77571 6.37884 4.38843 4.40834
101 34 2 -5.88158 2.71907 3.95506 1.54845 -18.1973 -11.4797
553 185 1 -5.71089 2.02487 9.56454 29.0693 2.6711 -6.72382
561 187 2 0.0276871 6.41015 4.61183 27.0981 24.219 -1.22129
512 171 2 3.95202 7.2644 3.4532 -8.89859 -8.01725 -3.62353
203 68 2 5.73214 0.482924 7.37064 13.6005 -5.94029 -0.108035
202 68 1 6.3332 0.360976 8.18932 -24.2645 36.4977 -1.89473
204 68 2 6.19494 1.27701 8.69743 14.1118 -27.983 0.00810071
467 156 2 0.712558 4.42751 8.95615 10.2835 -14.2643 2.99503
112 38 1 0.361481 1.16698 9.30002 -20.6784 -17.4715 7.56993
113 38 2 0.094669 2.04424 8.84777 17.289 10.55 2.54563
263 88 2 0.181742 0.33621 6.00623 15.2729 -9.75304 3.74936
262 88 1 0.128142 1.1135 5.36427 -4.86593 39.5163 -17.3684
264 88 2 0.968938 1.53968 4.92634 -6.03285 -20.5528 16.5864
344 115 2 4.62301 5.98668 6.51888 -3.09552 -8.2223 7.2097