ITEM: TIMESTEP
14500
ITEM: NUMBER OF ATOMS
648
ITEM: BOX BOUNDS pp pp pp
-7.2647007044349081e+00 7.2647007044349081e+00
-7.2647007044349081e+00 7.2647007044349081e+00
-1.6143779343189205e+01 1.6143779343189205e+01
ITEM: ATOMS id mol type x y z fx fy fz
142 48 1 -2.50084 -6.75376 -11.2384 4.30883 -8.6861 12.0001
143 48 2 -2.17018 -5.83052 -10.9078 -0.396279 7.68317 -2.67182
492 164 2 -2.95468 -2.81019 -13.9699 -6.10932 -1.81976 -5.56422
490 164 1 -3.9302 -2.76403 -14.2767 10.9532 8.8599 -1.51472
491 164 2 -4.4907 -3.45747 -13.8001 -5.27691 -8.69982 7.8949
424 142 1 -4.60895 -5.76217 -12.7677 7.70605 12.2664 2.41807
426 142 2 -4.85185 -6.62953 -13.2234 3.87348 -10.1556 -7.4217
281 94 2 -5.15694 -3.01441 -16.0442 6.56124 0.914098 7.35672
634 212 1 -6.05369 -2.3093 -11.8936 29.3545 11.2689 -18.613
636 212 2 -6.895 -2.56892 -11.3952 -14.9698 -5.81297 10.1673
635 212 2 -5.26455 -2.361 -11.2393 0.690196 2.17127 -0.0585199
404 135 2 -2.20691 -6.79271 -15.6992 15.2734 5.94803 -0.294101
403 135 1 -1.35475 -6.20865 -15.4744 5.78935 3.78165 23.148
147 49 2 -6.09211 -5.54648 -12.2754 2.20444 6.88684 -4.17515
308 103 2 -1.13283 -3.95973 -10.7581 -13.8527 2.78586 0.920662
309 103 2 -2.6071 -3.70858 -9.85674 5.21991 0.538564 -9.00286
307 103 1 -1.96033 -4.3864 -10.302 6.03298 2.26947 4.8498
268 90 1 -4.0741 -2.49805 -9.70789 -4.81907 6.02916 7.29158
32 11 2 -0.265768 -3.43395 -13.0933 5.51269 5.32356 7.33502
31 11 1 -0.0787364 -3.24938 -12.0766 -8.83618 24.6888 7.61618
11 4 2 -6.91997 -3.03664 -15.0908 7.22865 -1.89851 -14.4548
12 4 2 -6.68056 -2.08858 -13.7345 -10.5792 -9.32677 -4.46627
33 11 2 -0.159889 -2.21665 -11.9213 5.10567 -27.7799 -8.16703
405 135 2 -0.993992 -6.40289 -14.4953 -6.9536 4.93018 -26.5411
145 49 1 -7.12128 -5.41334 -12.2343 -23.9125 -6.9303 11.8162
469 157 1 -3.75758 -0.225793 -12.5961 -22.3448 3.58275 -7.15197
470 157 2 -3.88165 -1.10531 -13.1167 7.80883 6.10052 3.9646
610 204 1 -5.90759 -7.00455 -15.5434 -28.4906 0.669895 -1.50688
425 142 2 -3.67283 -5.82672 -12.3499 -1.24897 -7.44959 1.49447
120 40 2 -3.88533 -5.6784 -10.094 -7.43133 4.60877 8.01001
80 27 2 -1.69584 -0.429255 -9.94632 -17.638 -0.309703 25.1044
393 131 2 -1.04018 -4.263 -14.8931 18.042 3.53043 -12.1226
391 131 1 -0.403442 -3.47424 -14.6901 11.304 3.39412 -2.02941
10 4 1 7.13998 -2.43397 -14.4147 -3.39604 19.3268 30.6904
361 121 1 0.0389499 -6.41407 -13.1323 -20.7395 -2.49999 -10.4501
362 121 2 0.69335 -5.68213 -12.8314 7.18383 -22.0479 -4.92352
514 172 1 5.9048 -6.74647 -14.3769 10.2519 9.8242 -3.1525
516 172 2 6.53176 -6.28132 -13.7085 -4.19527 5.02486 -0.0838462
14 5 2 1.04759 -0.858392 -14.4051 -8.94061 9.73271 -0.557377
170 57 2 5.78945 -3.56962 -13.4015 -4.53685 1.10517 -17.9917
169 57 1 4.76488 -3.54483 -13.2986 29.4169 3.20353 31.9889
171 57 2 4.72629 -3.26354 -12.3262 -11.0889 1.76034 7.15754
13 5 1 0.324865 -0.15978 -14.1859 6.55788 -19.6099 3.98035
82 28 1 5.06699 -0.612782 -14.7792 21.8923 -10.0637 3.39966
83 28 2 4.98338 -0.467508 -13.7766 -5.84679 -1.68269 -3.46667
515 172 2 5.86031 -6.17695 -15.2518 0.328414 -10.1689 14.7948
206 69 2 2.849 -2.91336 -11.522 -7.94638 2.23679 3.67781
205 69 1 2.88334 -2.06875 -12.1081 -0.858897 4.21637 -4.18842
207 69 2 3.15761 -2.35027 -13.0532 2.09158 -0.524281 0.937125
84 28 2 5.86404 -1.28152 -14.891 -12.6917 6.08219 3.18143
146 49 2 7.03532 -5.91515 -11.4137 2.65673 0.683016 -4.4363
465 155 2 2.07946 -0.676337 -11.6347 6.08582 2.42267 7.57094
236 79 2 1.18313 -5.86642 -9.77456 -9.50537 -11.6285 17.7561
190 64 1 1.9162 -3.94301 -10.3432 -18.2812 6.84084 14.8134
335 112 2 6.92259 -3.3543 -9.77475 2.26356 -7.22638 -10.091
507 169 2 5.72684 -1.53037 -10.7398 -2.35904 8.99315 8.99356
191 64 2 1.08251 -3.8761 -10.9727 13.6044 5.71135 6.74109
336 112 2 6.59467 -4.01456 -11.3089 0.800078 10.0487 14.6734
334 112 1 6.39487 -3.20984 -10.6708 -23.2771 -5.17447 -22.5935
455 152 2 4.56925 -6.32841 -10.1495 -1.76744 2.81729 -2.0928
454 152 1 5.55572 -6.51767 -10.0002 -1.197 1.68823 5.42183
505 169 1 5.555 -0.553271 -10.4269 15.9207 -4.10526 -4.35045
506 169 2 6.47886 -0.093222 -10.357 -12.3141 -5.80869 0.846088
392 131 2 0.430077 -3.31219 -15.3177 -27.9352 -10.2766 6.41968
632 211 2 4.21792 -3.94722 -14.5865 17.7938 -3.77112 5.6942
631 211 1 4.04938 -4.30452 -15.5454 -16.0317 -19.1261 -50.8922
633 211 2 4.86496 -4.71737 -16.0549 -9.40916 13.6615 18.4707
257 86 2 2.6263 -3.52734 -16.0406 -3.1087 3.22306 -5.49033
495 165 2 2.19379 -6.30588 -16.0248 -5.89046 -0.557463 3.18069
493 165 1 2.23438 -7.17222 -15.4813 -14.2208 -7.44378 3.68254
141 47 2 -5.45232 1.08238 -12.7964 -8.99991 8.61033 12.668
139 47 1 -6.12482 1.72446 -12.322 17.974 -12.4056 -16.3763
621 207 2 -1.07125 0.0219885 -12.9427 10.9244 3.9815 -8.62171
144 48 2 -1.924 7.12533 -10.662 -4.15949 -3.22072 -14.3678
163 55 1 -0.951642 5.92739 -9.97919 -5.63932 12.4951 -3.23804
471 157 2 -2.80811 0.0780105 -12.3513 7.35394 -4.44179 -0.656023
483 161 2 -4.4342 3.40389 -14.1366 7.22216 -8.03371 5.14501
482 161 2 -4.24618 5.0569 -14.122 -2.21175 -18.9443 -9.40674
481 161 1 -4.7157 4.24613 -14.6127 6.09131 23.5746 6.49595
611 204 2 -6.53698 7.19197 -14.8077 11.0638 -3.64678 5.19611
201 67 2 -5.7527 3.31372 -11.4697 4.32013 -12.0434 1.13218
67 23 1 -5.15436 0.490749 -10.0293 -3.68959 -2.55998 4.65531
341 114 2 -5.36121 5.67006 -9.80056 2.6237 -11.1454 -8.51956
68 23 2 -5.52443 0.795576 -10.9506 10.4994 -0.0984377 11.238
69 23 2 -4.13655 0.384068 -9.99366 -8.11161 4.67125 -7.99769
555 185 2 -2.7669 6.69641 -14.1767 -3.45636 -14.238 8.91804
553 185 1 -3.02932 6.06302 -13.4055 -8.23138 7.6146 -22.6824
554 185 2 -2.7767 6.49123 -12.519 4.98078 5.63711 11.6123
140 47 2 -6.69165 2.1876 -13.0266 -5.42697 -0.0186396 0.800093
619 207 1 -1.19241 0.448277 -12.0222 2.46016 -5.84898 12.2409
65 22 2 -6.28098 4.44458 -14.8213 -5.89062 5.57936 5.81026
620 207 2 -0.23681 0.6852 -11.7155 -6.64036 -1.32312 0.883748
199 67 1 -5.69948 4.27353 -11.139 -15.4946 8.60371 -5.3842
200 67 2 -6.64865 4.66431 -11.3356 17.1751 4.80567 9.01255
64 22 1 -7.25337 4.82314 -14.8395 -7.2611 2.39529 -4.1138
293 98 2 -0.262024 5.05499 -14.9742 -2.09845 0.641113 -2.70989
449 150 2 -0.803258 2.90141 -11.4603 -1.4283 1.43798 -1.39268
210 70 2 -3.87625 4.13979 -9.70666 9.33969 3.63774 -13.4302
450 150 2 -1.00388 4.54121 -11.2602 1.67156 6.66036 5.00568
448 150 1 -0.55537 3.81999 -11.8286 4.86958 -6.6272 -6.63585
363 121 2 0.294564 7.134 -13.391 11.9 17.4646 12.5211
15 5 2 0.213126 0.472419 -14.9653 2.2645 7.92518 -10.2337
189 63 2 4.86947 7.13926 -12.9032 -12.0631 -3.49567 -10.2212
98 33 2 6.43372 5.95089 -12.3562 -0.93004 -1.93057 -8.98747
271 91 1 3.31542 4.8927 -10.5248 -8.20057 12.2596 -3.30781
273 91 2 3.20803 5.38402 -11.4192 7.6809 -10.3581 -10.5036
187 63 1 4.08634 6.52968 -12.6217 -2.87582 2.7626 -0.637202
97 33 1 6.62568 5.84552 -11.3687 -10.2007 -4.04927 8.32735
272 91 2 3.28163 5.70022 -9.92197 0.0665668 -3.19335 15.6234
480 160 2 4.38269 0.46088 -9.75349 5.79597 5.86063 1.81348
66 22 2 6.5697 4.10801 -14.6415 3.45147 -6.0131 1.70585
188 63 2 3.50265 6.3219 -13.4428 5.82337 4.31557 2.68269
294 98 2 0.0873067 4.84215 -13.285 -6.77461 -5.53937 -7.56533
292 98 1 0.248508 5.39381 -14.1427 16.3128 16.7189 27.9169
226 76 1 2.97872 3.49406 -13.2636 8.94921 -3.56415 10.7485
228 76 2 3.87445 3.27139 -12.8126 8.24139 5.00873 -0.747255
227 76 2 2.30137 3.29167 -12.5534 -18.3465 0.746885 6.72727
463 155 1 1.6617 0.0251939 -10.9905 -17.7554 -0.921429 -2.35597
464 155 2 2.35442 0.616428 -10.5343 10.4042 1.03818 -0.596431
53 18 2 2.99068 3.61477 -14.7609 3.80165 5.69537 -8.29944
52 18 1 3.2698 3.53732 -15.7751 6.7907 3.36737 -18.4038
59 20 2 4.8653 2.66062 -15.1699 -7.3729 8.43652 -11.7677
58 20 1 5.78927 2.32282 -14.9006 0.948577 0.548718 10.4544
99 33 2 5.8288 6.27236 -10.8608 14.5108 0.260503 -4.1289
477 159 2 5.28761 2.2546 -11.2577 -0.431726 -4.93974 5.91114
475 159 1 5.35398 3.05171 -11.8773 -1.49428 -2.00274 -6.00055
476 159 2 5.42235 3.88972 -11.3013 -1.00095 4.09029 -0.170523
494 165 2 1.29106 7.03447 -15.1754 21.657 4.85002 -7.79458
60 20 2 5.5503 1.63108 -14.1856 8.31168 1.01249 -6.35465
79 27 1 -2.10718 -0.445951 -8.98074 14.2262 -5.23036 -37.3197
118 40 1 -4.7141 -5.71226 -9.48117 13.2861 -10.5557 -12.1395
237 79 2 -0.192536 -6.19445 -8.83333 -5.67167 7.59865 3.56574
178 60 1 -1.8721 -4.98953 -4.19453 -22.7755 -1.00145 -1.03846
180 60 2 -1.27702 -4.5645 -3.48703 15.3732 3.41074 0.0513939
87 29 2 -5.02052 -7.10216 -6.53107 -0.313897 -4.5876 -1.02356
8 3 2 -4.62503 -3.28775 -4.78618 -8.70707 7.8709 6.59068
548 183 2 -1.77079 -5.63901 -5.99878 3.22944 3.65663 -0.976903
270 90 2 -3.81693 -1.5967 -9.30105 8.26756 4.2258 -9.70866
85 29 1 -5.06625 -6.08638 -6.57779 3.01687 3.49923 2.18258
86 29 2 -4.30933 -5.75788 -7.1756 0.802679 -5.60538 -8.13363
7 3 1 -4.92845 -4.26047 -4.65255 13.6318 -4.33861 -12.5885
9 3 2 -4.71876 -4.74459 -5.54888 -11.9591 -8.97071 16.0432
269 90 2 -4.81069 -2.81331 -9.07801 -6.64176 -11.2568 -6.93324
549 183 2 -2.06126 -4.86608 -7.45519 3.07756 4.07811 4.25063
37 13 1 -6.56136 -3.93629 -8.84669 -4.04297 15.6891 23.0602
547 183 1 -1.81269 -5.75919 -7.02282 -2.3381 -6.75617 -0.585441
39 13 2 -5.82753 -4.67152 -8.9488 -6.99485 -3.70192 3.35034
119 40 2 -5.04207 -6.6775 -9.56331 -3.20859 -0.295097 9.21278
38 13 2 -7.23488 -4.04571 -8.05961 19.0636 -14.8525 -5.39256
285 95 2 -2.24006 -0.48934 -5.04796 -5.3073 9.12175 12.3037
179 60 2 -2.84342 -4.7997 -3.92273 5.4005 -4.81698 -4.5948
305 102 2 -6.5536 -3.42069 -4.90976 -11.896 -5.91934 10.8698
21 7 2 -2.30255 -2.14753 -7.96976 -12.7925 -8.15409 16.7149
19 7 1 -2.56395 -2.92226 -7.31527 9.37462 -0.757348 -9.73479
20 7 2 -3.4102 -2.78247 -6.76244 4.34647 9.88871 -5.66168
413 138 2 -0.0401214 -0.898901 -7.33435 9.19768 -1.94894 -1.96116
412 138 1 -0.606182 -1.10253 -6.49547 -8.97653 2.25067 12.5164
434 145 2 -5.68505 -0.0371363 -6.61901 5.13751 -7.79799 -0.977959
414 138 2 -0.904315 -2.0789 -6.58844 -0.995551 3.51378 4.55799
300 100 2 -6.87741 -5.75021 -6.32267 -6.35003 1.38048 -13.6193
283 95 1 -2.87288 -0.0708552 -4.33811 12.8137 -15.3608 -6.5052
133 45 1 -5.01011 -1.6637 -4.89473 2.26468 11.9844 23.1308
134 45 2 -4.16993 -1.28361 -4.41125 -5.28357 4.30433 -16.2309
135 45 2 -5.78268 -1.19593 -4.38335 7.48355 -1.77152 -9.1392
546 182 2 -5.30864 -5.82847 -3.50319 4.90707 3.21449 -8.39995
600 200 2 1.03754 -0.673438 -9.41608 3.83224 8.53974 -16.6092
599 200 2 2.12464 -0.903132 -8.14613 -20.9516 2.0013 -3.7657
598 200 1 1.12213 -0.885994 -8.42951 23.8498 -6.91087 14.6864
235 79 1 0.73397 -6.51185 -9.09129 15.6521 8.39626 -15.7547
192 64 2 1.74504 -3.42035 -9.45428 4.55783 -15.6516 -20.9381
306 102 2 6.72019 -3.53464 -3.74269 -0.107538 -6.15148 1.601
304 102 1 6.96991 -3.26476 -4.70782 12.6475 15.2847 -16.4796
229 77 1 2.57687 -3.95201 -6.77515 15.2695 31.9358 -0.296052
230 77 2 2.57178 -4.97438 -6.85019 -12.8395 -10.341 8.61745
231 77 2 2.91536 -3.67909 -5.84087 -7.16025 -7.06132 -8.25923
259 87 1 3.93633 -1.75636 -7.61773 -9.77214 4.6234 -0.305137
260 87 2 3.22619 -2.53405 -7.55365 21.6852 11.1586 -3.99339
385 129 1 1.92566 -6.44925 -6.48089 11.2367 -35.9602 -3.7014
261 87 2 4.20407 -1.37117 -8.53271 -5.42168 -14.2244 5.81593
456 152 2 5.79439 -6.2948 -9.03069 2.51479 1.04848 -0.965689
96 32 2 5.77529 -1.09182 -6.16361 -0.642377 6.4375 -1.52326
299 100 2 6.1809 -5.26961 -5.83316 -6.1159 5.72217 3.74257
94 32 1 6.58718 -0.671352 -5.69919 -10.866 -19.475 -1.84962
95 32 2 6.99559 -1.52358 -5.26794 -4.17655 9.7484 -1.58555
298 100 1 6.70674 -5.49609 -6.66667 12.9356 -5.8363 1.1048
311 104 2 5.42304 -6.79138 -3.33483 -2.57481 -2.35491 1.18753
310 104 1 6.44021 -6.69292 -3.34757 -6.13837 7.05283 -2.54716
386 129 2 1.381 -6.85879 -7.24301 -6.15133 12.7376 -5.74371
109 37 1 3.39714 -3.60142 -3.25577 6.26311 -2.1419 -5.63266
165 55 2 -0.345116 6.36604 -9.28015 3.88842 -3.55986 0.525721
81 27 2 -1.5693 0.305847 -8.54384 -3.83712 4.87772 5.16763
164 55 2 -1.80229 5.52659 -9.52546 8.95193 -8.00445 -6.69185
284 95 2 -3.12428 0.872098 -4.65177 -1.26439 6.185 -3.88793
208 70 1 -2.91327 4.35694 -9.41921 -29.4665 -15.4245 15.1702
209 70 2 -3.02141 4.25682 -8.40214 8.57891 8.67171 4.47035
342 114 2 -6.66261 5.90243 -8.84778 8.85459 -0.13723 1.9482
340 114 1 -5.63887 5.93914 -8.86169 -14.0423 10.5774 4.86356
433 145 1 -5.71135 0.90433 -6.25098 -1.15195 7.09021 -4.58901
435 145 2 -6.67125 1.02863 -5.94947 -5.33314 -1.5025 4.56401
643 215 1 -3.76396 2.39792 -5.35299 17.3489 23.9202 29.2953
648 216 2 -6.22799 3.92421 -7.69393 -0.776769 -15.11 -5.70388
623 208 2 -3.97449 5.07518 -6.10182 12.3667 -0.230342 0.367516
129 43 2 -0.949887 2.92169 -9.23444 -11.4664 3.45959 -1.61417
622 208 1 -3.20303 4.63695 -6.64852 -2.80307 -5.69616 -9.65959
646 216 1 -6.6229 3.02147 -7.99658 0.868879 3.72486 6.55255
647 216 2 -5.98382 2.21792 -7.88973 -4.28698 11.2475 0.50974
624 208 2 -3.23755 3.62281 -6.42622 -1.17116 6.02581 8.0219
105 35 2 -5.73291 5.37957 -4.55266 -1.28483 4.13962 -2.62718
103 35 1 -4.77046 5.71692 -4.73376 -3.20214 6.57723 3.69902
104 35 2 -4.65069 6.61113 -4.22162 -4.00818 -2.54624 0.455599
645 215 2 -3.96434 3.04099 -4.5482 5.82235 -16.0567 -10.8607
644 215 2 -4.5906 1.8345 -5.54652 -16.7515 -12.6102 -11.0612
503 168 2 -1.01188 6.85567 -7.07204 -8.73471 8.28202 4.06231
502 168 1 -0.740104 5.87688 -7.09228 10.0624 -5.12867 1.42556
504 168 2 -1.52559 5.25733 -6.86541 -10.1635 4.24389 1.52196
569 190 2 -3.94236 4.74816 -3.28774 -5.32863 -0.820557 15.2551
127 43 1 -0.594063 1.97525 -9.29812 -2.50288 1.72112 0.959998
478 160 1 3.82111 1.25301 -9.39086 -15.7967 2.60194 -3.65974
90 30 2 2.41582 2.39209 -8.77565 2.0388 1.35105 8.9375
616 206 1 1.00131 1.32831 -5.56205 4.78999 -26.2236 3.99923
618 206 2 0.24183 0.740779 -5.90293 -11.5783 10.2033 -3.20357
387 129 2 2.39125 7.24524 -6.11507 -2.91622 9.37959 6.85111
617 206 2 1.65002 0.57006 -5.35388 7.04028 13.2347 2.78816
479 160 2 4.25611 1.61997 -8.50897 4.99635 -13.0261 -7.64075
89 30 2 2.15161 3.72231 -9.59298 -0.386093 8.58152 10.0686
638 213 2 1.63281 4.43953 -7.61407 14.4485 -9.23215 3.05949
639 213 2 0.81011 5.27596 -6.55249 0.199466 5.87952 -0.309755
637 213 1 1.78128 4.99473 -6.7516 -3.32551 8.95911 10.0383
44 15 2 6.25818 5.06254 -5.04164 -8.05976 -4.47668 -15.4916
43 15 1 7.03334 5.14798 -4.38762 20.5151 14.9112 2.05891
45 15 2 6.78724 4.47147 -3.67431 -7.39341 -7.57284 8.30512
128 43 2 0.372914 2.08731 -9.02404 11.2872 -1.55614 4.47084
564 188 2 2.38487 4.18602 -5.11004 -1.76185 -8.80294 8.63709
88 30 1 1.90112 3.27714 -8.69341 2.68786 -16.1125 -32.0887
312 104 2 6.74184 6.91634 -3.65454 11.5552 -9.11202 -2.58914
123 41 2 5.53111 0.906904 -6.57736 -5.77503 -6.03521 -0.5507
562 188 1 2.49785 3.54014 -4.3047 -3.8413 -2.72437 -10.8932
122 41 2 6.02199 2.31865 -7.18762 -19.3917 -9.12635 -10.6839
121 41 1 5.23356 1.6301 -7.23126 31.3602 20.9477 14.5301
153 51 2 4.11918 3.4209 -3.58777 23.9215 17.4749 -0.836163
445 149 1 5.07981 4.50509 -6.29991 -10.7083 26.324 -9.38026
446 149 2 4.44715 3.77782 -6.58796 -1.32093 -20.4661 2.1579
447 149 2 4.56381 5.33364 -6.61304 10.7979 -3.3405 7.65989
563 188 2 1.87558 2.7291 -4.46387 4.45239 8.7697 -3.52493
246 82 2 7.02161 0.545256 -3.55224 2.28134 3.29344 -5.69313
245 82 2 -7.13704 -0.381858 -2.29073 7.6648 1.31903 6.05022
35 12 2 -7.19153 -1.80136 -0.469019 7.22088 -5.11266 -8.76564
558 186 2 -3.57161 -1.46541 -2.24157 13.1408 5.30733 2.98921
18 6 2 -0.24448 -2.25234 2.66409 8.13746 2.56278 -14.1569
34 12 1 -6.71107 -2.3816 -1.17202 -12.1582 12.8308 0.00714249
115 39 1 -0.00464746 -6.11151 0.785076 0.607418 1.46719 -0.659524
117 39 2 -0.550594 -5.56951 1.44387 -8.91991 -2.53698 6.09251
614 205 2 -3.24259 -4.6767 0.826883 -7.01849 0.560911 -2.82496
615 205 2 -3.93025 -3.44546 -0.118461 -1.3655 -13.7843 2.67294
613 205 1 -4.11921 -4.22269 0.547611 5.90271 12.578 -4.35047
557 186 2 -4.68951 -2.47183 -1.80897 -11.5275 -7.12734 8.25578
556 186 1 -3.7073 -2.27125 -1.64079 -6.24121 -0.0277594 -2.53291
16 6 1 -0.259593 -1.52844 1.91549 0.487154 -12.2149 -9.0094
462 154 2 -6.4704 -4.32159 3.07714 -2.18541 -7.77808 -5.76145
460 154 1 -6.5057 -3.50626 2.45372 1.23937 2.98947 3.59291
461 154 2 -5.98926 -3.66955 1.58785 1.64606 -8.3834 -5.66731
276 92 2 -5.35928 -2.65751 3.17228 -5.40041 -0.410399 6.36847
195 65 2 -0.74134 -2.19597 -1.33552 14.6377 15.0477 -9.70125
91 31 1 -5.53273 -6.90655 -0.444358 20.6842 22.5966 0.0868883
93 31 2 -5.22911 -5.9357 -0.330278 -6.81836 1.6577 4.29855
545 182 2 -5.09927 -6.54462 -2.05914 -0.966887 -13.0614 -2.83856
544 182 1 -4.79471 -6.58296 -3.04284 -0.308437 1.14121 2.56651
193 65 1 -0.209122 -1.32254 -1.51798 -2.70526 -5.26512 14.2584
347 116 2 -7.10838 -7.11544 0.431676 -9.12096 -23.5806 -9.04903
2 1 2 -4.09237 -1.59355 1.06953 5.28005 -5.27493 -11.7277
275 92 2 -4.53113 -1.29313 3.02999 7.16832 11.7611 -3.4027
3 1 2 -2.95407 -0.339907 1.32773 0.452567 -4.06603 -5.24664
1 1 1 -3.91779 -0.657247 1.39769 -4.84597 7.55177 17.2027
607 203 1 -2.3364 -5.7687 2.81191 0.601355 -2.68383 8.4914
608 203 2 -2.7306 -4.86942 3.09712 4.09828 -8.6389 1.56665
50 17 2 -0.555881 -0.0887712 2.05218 -5.37867 -3.54209 17.3494
593 198 2 6.51449 -5.16323 -2.64278 -4.13689 19.0304 -2.54217
592 198 1 6.16823 -4.19419 -2.40263 -10.685 -38.3217 9.50382
594 198 2 5.43078 -4.43218 -1.7058 11.2372 16.3347 -5.86171
111 37 2 4.4199 -3.73772 -3.22461 -11.421 1.58939 -1.61535
590 197 2 4.53384 -7.10092 -1.54717 -4.2968 8.89818 10.6364
116 39 2 0.901151 -5.66777 0.698336 4.55087 -3.76042 -3.04474
17 6 2 0.549906 -1.48499 1.27546 -1.90707 -14.1689 9.34527
589 197 1 4.74416 -6.51888 -0.712257 -8.11793 -15.1144 -28.8549
148 50 1 5.52086 -2.41546 2.46047 14.2888 -5.05719 -0.720473
150 50 2 6.48461 -2.8426 2.40161 -20.775 16.9044 -0.751107
36 12 2 7.07986 -2.72378 -1.81599 10.0613 -8.15409 11.0223
279 93 2 4.02592 -5.66409 0.511491 9.37497 -2.14338 -10.9104
278 93 2 4.71579 -5.13426 1.94 6.32479 2.21745 0.253089
379 127 1 2.56738 -3.15786 2.76307 -25.5945 17.0738 0.686919
381 127 2 3.02802 -3.77136 2.07858 16.5921 -6.63242 5.01381
110 37 2 3.14132 -3.1346 -2.39195 5.42607 1.0431 6.02731
277 93 1 4.03124 -4.90622 1.20907 -15.1318 5.54567 16.8887
301 101 1 0.340033 -4.04029 -2.62133 12.1877 -1.30159 2.18169
603 201 2 3.88325 -2.12331 -0.315764 -9.90111 13.4887 11.2001
303 101 2 1.25438 -3.83251 -3.04438 -8.50196 1.16778 -4.20548
302 101 2 0.483692 -4.88683 -2.08515 -3.66042 -6.26274 1.74007
601 201 1 4.33345 -2.97456 -0.609187 11.0659 -14.6801 -9.49032
602 201 2 4.45161 -3.63863 0.18027 -7.18137 5.92225 -2.61894
606 202 2 2.69607 -1.79871 1.49042 -0.45947 2.13202 -4.3022
149 50 2 5.45638 -1.40157 2.26215 10.5633 -6.94703 0.157204
605 202 2 2.31069 -0.249399 0.894229 15.9485 -13.031 -2.3037
591 197 2 5.58919 -6.96861 -0.335308 5.08773 -4.10798 9.71728
194 65 2 0.800631 -1.44459 -1.3558 -13.5882 -1.93139 -3.72017
604 202 1 2.45508 -1.2499 0.647888 -14.3098 6.87703 6.35614
568 190 1 -3.90759 3.81593 -2.85298 0.888287 -14.3091 -36.0978
244 82 1 -6.71849 0.135725 -3.06455 -7.3974 -8.06631 -1.48729
486 162 2 -7.20049 0.993121 -0.470218 0.328783 -5.33113 -1.36312
570 190 2 -3.89268 3.67387 -1.84 3.20589 14.0364 12.1552
331 111 1 -3.5482 6.38807 0.838356 4.34061 6.10697 -9.13289
92 31 2 -4.69047 7.09091 -0.14806 -10.045 -8.12011 6.10914
523 175 1 -6.02386 2.17013 -0.381892 7.91693 7.12206 4.07407
525 175 2 -6.38862 2.66436 -1.1819 -7.71611 2.84848 -8.82901
401 134 2 -3.74516 2.16535 2.97055 -0.752658 -0.026028 -12.773
350 117 2 -0.473912 5.42044 1.82622 -2.52666 1.04209 4.27374
364 122 1 -1.91026 0.938835 -1.41618 16.8766 -10.4004 2.31602
365 122 2 -2.42299 1.03179 -2.29373 0.0544337 -1.28998 -1.46238
366 122 2 -1.2361 0.141407 -1.54794 -13.2047 12.4824 3.72112
524 175 2 -5.0437 2.52593 -0.32171 -6.38946 -7.45822 6.36267
62 21 2 -1.67299 5.50991 -3.08965 3.40829 -3.27657 -1.03319
61 21 1 -1.44166 6.32005 -2.52593 -14.2028 6.08061 0.22079
560 187 2 -3.30777 3.61505 0.633591 0.582744 -5.93607 -1.67616
101 34 2 -1.95036 4.18511 2.41579 -13.4534 0.592739 -3.78572
559 187 1 -3.53954 3.17995 -0.285315 11.8902 -13.7665 -2.91057
561 187 2 -2.90763 2.38201 -0.528825 -10.9257 14.1338 7.78144
63 21 2 -2.04236 7.09454 -2.82549 7.05091 -1.81902 2.39828
349 117 1 -0.853612 5.59554 0.896257 -1.19698 -9.36158 -3.67519
100 34 1 -2.95363 3.99583 2.25872 17.2405 -6.73198 5.51741
102 34 2 -3.49109 4.17482 3.11357 0.382453 5.36328 0.465598
351 117 2 -0.652173 6.55994 0.680869 7.30008 20.5056 -6.03712
368 123 2 -0.705882 1.97317 0.125183 2.52414 6.93051 -1.07664
369 123 2 -0.745036 3.55842 -0.0918807 8.76159 3.05608 20.2797
367 123 1 -0.377654 2.84585 0.563322 -9.07723 -22.328 -27.0982
501 167 2 -5.50227 5.87521 2.09842 -8.41335 5.22254 -8.23279
499 167 1 -6.27582 5.96207 2.76635 26.4088 -13.7976 11.4757
51 17 2 -0.409352 1.51603 1.70799 -10.8097 0.138764 23.9222
49 17 1 -0.691765 0.862056 2.47209 10.948 27.5785 -18.5143
332 111 2 -3.14822 6.62713 1.75373 0.903891 -3.06386 -11.2632
333 111 2 -2.81219 5.98816 0.223 -7.22522 3.69961 17.311
249 83 2 -6.21347 2.45515 2.83478 2.97985 -4.26845 -6.00614
248 83 2 -6.78511 2.27542 1.24112 0.469669 5.49205 22.6027
247 83 1 -7.05789 2.3309 2.25363 -0.244157 -6.95785 -16.815
24 8 2 5.4127 1.59268 -0.548075 -5.46415 8.44115 -4.8839
22 8 1 4.94833 2.44501 -0.920411 -3.51258 11.315 17.7439
23 8 2 4.78039 3.16866 -0.170482 10.2476 -19.3497 -9.89381
151 51 1 5.05222 3.7418 -3.20202 -34.1112 -24.3943 -1.33784
152 51 2 5.03325 3.24853 -2.28587 7.58749 0.208942 2.18139
484 162 1 6.56414 0.301096 -0.339514 12.2212 0.571068 0.867948
485 162 2 6.52774 0.125852 0.669905 -9.80429 -1.06458 0.376388
567 189 2 0.0957652 6.26842 -1.59682 3.48952 5.30822 -10.5353
216 72 2 5.47366 5.08845 0.923038 2.40696 0.0880343 -0.529813
348 116 2 6.84551 6.27856 1.48112 6.55642 2.6173 -5.90567
346 116 1 6.66138 6.70197 0.558175 3.94182 11.9041 19.2944
565 189 1 1.10414 6.06418 -1.52969 -0.485175 -9.19739 7.90276
566 189 2 1.15914 5.12958 -1.13573 4.72619 4.36543 -1.55334
215 72 2 4.71801 4.20612 2.17755 12.0369 1.80856 -18.2284
214 72 1 4.97955 4.22947 1.17186 -14.9299 -1.38211 15.8695
420 140 2 1.25877 4.32576 2.78919 -9.63746 4.88768 -17.334
419 140 2 1.35768 2.92536 1.68707 -18.6058 26.1694 4.99238
418 140 1 1.67038 3.43247 2.53158 20.6226 -22.1476 8.70187
330 110 2 2.43185 0.795186 2.75527 7.45554 2.72473 -1.98593
328 110 1 2.94976 1.13372 1.93272 -9.07723 6.45754 7.2495
329 110 2 2.7971 2.15831 1.86274 5.97404 -11.7984 5.41622
409 137 1 2.27099 6.27385 2.52242 4.09409 4.36773 -3.72934
315 105 2 4.64416 5.32666 -3.20749 -7.96818 1.11607 3.67274
313 105 1 4.13801 6.21601 -3.01262 -14.6328 6.405 9.13923
314 105 2 3.16129 5.99923 -2.72526 16.1918 3.60512 -6.99215
411 137 2 2.79159 6.4885 1.65656 -9.8519 -4.43191 11.6608
552 184 2 6.24865 1.12857 2.40235 6.44397 6.38958 -2.31997
550 184 1 5.5808 0.362983 2.2253 9.96676 -10.3886 13.7686
551 184 2 4.6568 0.781087 2.13879 -16.018 3.24608 -7.87331
609 203 2 -2.05949 -6.36667 3.60897 -1.20368 13.0189 -11.9468
444 148 2 -3.90002 -2.13581 5.46155 -0.581324 8.42332 -10.188
442 148 1 -3.3611 -2.60799 6.18935 -18.9969 -38.8388 -2.43344
443 148 2 -3.57858 -3.6123 5.97941 5.85838 26.4523 11.7906
339 113 2 -6.4414 -7.14843 3.64775 -7.81792 9.19147 -4.4655
337 113 1 -6.59121 -6.15528 3.91939 21.1027 4.26317 7.12637
319 107 1 -1.04045 -1.64159 5.47725 22.6901 0.873272 -13.258
321 107 2 -0.817001 -2.40031 4.80806 2.50936 8.00352 0.114041
126 42 2 -4.16707 -0.768058 8.29449 -4.03719 25.2672 14.6827
125 42 2 -3.65678 -2.07583 7.71573 11.0197 -11.205 9.55111
124 42 1 -3.79916 -1.63307 8.64532 -13.4405 -18.2969 -20.2156
458 153 2 -6.98126 -4.02808 7.00985 13.5667 -9.77289 -13.1389
459 153 2 -7.02284 -3.12956 8.43422 -4.96242 -3.94603 0.369667
356 119 2 -5.36887 -2.21451 9.47448 23.2297 8.67084 -8.00381
167 56 2 -2.89573 -7.1999 6.74965 -22.8007 0.251813 5.07223
213 71 2 -5.71004 -5.33398 5.2463 -11.1941 6.02406 0.544283
320 107 2 -1.7807 -1.99651 6.07248 -22.3424 -4.88233 4.81899
264 88 2 -5.98271 -1.55587 4.93569 7.07841 -4.32865 -5.62752
212 71 2 -4.88596 -5.37041 6.63345 -0.15019 -2.67603 6.74003
211 71 1 -5.46756 -4.75468 6.07217 7.0234 -7.3121 -5.12113
158 53 2 -1.07121 -6.58334 5.79958 -1.64061 -8.67438 1.81343
360 120 2 -0.241936 -4.29526 8.83393 9.73361 10.2789 4.12199
132 44 2 -4.12927 -6.27123 8.68912 -4.07923 -14.0853 -5.42235
130 44 1 -4.00647 -6.87778 7.86189 4.54421 20.5397 -1.98887
157 53 1 -0.347426 -5.91723 5.49977 6.52799 24.0647 -9.20573
262 88 1 -6.438 -1.10788 5.73624 -8.93938 14.8276 3.3333
263 88 2 -6.41181 -1.66966 6.57749 -0.847673 -9.14104 1.13322
274 92 1 -4.7679 -2.00708 3.72066 0.404536 -3.20881 6.23691
468 156 2 -0.630135 -1.27078 9.28416 4.21386 2.62169 14.971
407 136 2 -6.87732 -5.84245 9.03739 3.30895 -4.09129 5.92753
338 113 2 6.9332 -5.8992 3.80905 0.289678 -4.97983 -3.50429
536 179 2 4.83834 -0.21629 4.37677 -6.74955 -5.1935 10.5993
380 127 2 3.04379 -3.00843 3.66029 15.2158 -9.3353 -6.49639
254 85 2 0.0460672 -4.40338 4.36245 13.9659 3.21438 -10.6156
253 85 1 0.128468 -3.57571 3.73736 -34.908 8.10582 10.4775
255 85 2 1.04447 -3.32732 3.33087 15.0351 -16.1989 5.56468
457 153 1 6.94206 -3.61191 7.70301 5.59745 1.30319 2.78349
537 179 2 5.94477 -0.960958 5.26938 -3.1933 0.420432 7.47218
535 179 1 4.95822 -0.667694 5.29935 21.8903 5.89964 -23.1046
238 80 1 5.54252 -5.33832 3.45968 -18.7886 25.0668 9.94993
239 80 2 5.37551 -4.38576 3.85992 6.84662 -9.13352 -9.64745
240 80 2 4.68449 -5.80037 3.73348 -2.3282 -15.48 3.40081
159 53 2 0.532314 -6.05523 6.00946 4.18248 -7.04147 -0.879344
399 133 2 0.261487 -1.82918 6.35648 10.9973 6.46825 -7.23449
398 133 2 1.84379 -1.14929 6.39842 -12.8282 -7.54186 0.644858
397 133 1 1.19386 -1.84314 6.82322 11.2562 0.513386 -5.44947
5 2 2 2.25389 -5.57084 7.20511 2.22054 5.56301 -6.78761
4 2 1 2.07249 -6.47966 6.75534 -0.785961 0.59608 16.8835
6 2 2 1.95611 -7.16161 7.52148 -0.0910479 -2.34078 -8.72538
440 147 2 2.04677 -3.13251 7.5045 -8.49132 4.38779 -5.10857
427 143 1 4.47119 -3.33893 5.0977 -7.31991 14.929 -7.2603
428 143 2 4.51857 -2.30036 5.17985 -0.137343 -11.5696 -2.24643
429 143 2 4.82544 -3.74976 5.94218 4.36206 -5.68993 12.7814
439 147 1 2.45569 -3.95523 7.96921 8.6768 -8.87403 6.21972
441 147 2 3.30305 -3.59546 8.42837 2.26427 2.19998 0.991775
30 10 2 5.29904 -1.83634 9.38058 5.82823 -9.84155 -14.7808
28 10 1 4.96905 -2.77062 9.05482 -29.2197 -13.9928 3.08222
176 59 2 4.02076 -0.337916 8.15341 -2.02422 -0.48103 8.68982
573 191 2 3.50362 -7.1905 5.74977 -5.22296 -11.4124 0.644423
177 59 2 4.18052 -0.0463038 6.57442 -8.52896 -4.14639 -5.03027
467 156 2 0.539182 -1.29358 8.1536 15.2822 3.13257 3.3685
466 156 1 0.337453 -0.946229 9.10457 -3.6369 -0.427673 -6.3714
29 10 2 5.60629 -3.33454 8.43269 4.6776 26.6471 11.476
47 16 2 2.29853 -5.19025 9.19899 4.10106 5.08981 8.38699
70 24 1 5.69135 -0.244719 9.54464 -9.74961 -7.4371 7.54656
400 134 1 -4.60638 2.19058 3.50825 -2.85214 -5.17369 5.93414
402 134 2 -4.31784 2.40269 4.4478 -2.05189 1.74097 11.4569
166 56 1 -2.22585 6.90778 6.09862 25.7226 -0.753916 -4.12294
168 56 2 -2.6047 6.33532 5.35339 -14.4699 -2.62354 -5.63082
578 193 2 -1.35934 5.93684 9.31359 -7.94647 2.68703 -14.9164
131 44 2 -4.76053 6.95421 7.76685 -4.13655 -2.9144 10.8851
252 84 2 -6.24949 3.07851 6.3662 -5.4181 15.7348 1.67866
250 84 1 -6.24517 4.08394 6.07118 6.50005 -8.46922 -6.40043
511 171 1 -0.351655 5.64684 3.63526 23.8681 7.94796 -10.9047
500 167 2 -5.88449 5.43989 3.56552 -13.7995 4.55012 -3.92122
577 193 1 -1.0287 5.92423 8.31532 4.98053 -1.07807 11.2543
576 192 2 -4.9325 4.48479 5.16842 -9.00368 5.66385 1.5882
286 96 1 -0.668612 1.12575 5.22532 -4.2218 -0.0296995 -24.0727
288 96 2 -0.914023 0.168587 5.47406 -0.189928 -12.4164 9.08505
370 124 1 -2.34074 3.00541 5.98989 -2.17611 7.07615 6.48373
372 124 2 -2.97077 2.52344 6.66904 4.49984 -2.27254 -6.39309
371 124 2 -1.68751 2.3056 5.57437 -2.52789 -1.58057 4.82666
575 192 2 -3.34508 4.64437 5.40408 6.90673 -8.75244 0.135073
574 192 1 -4.08423 4.91177 4.75848 3.35901 1.81232 -2.66366
222 74 2 -1.49742 2.3161 8.55308 1.74083 -6.65478 6.80361
220 74 1 -1.39485 2.55255 9.53986 -15.0937 9.09877 -14.8327
221 74 2 -1.97396 3.38024 9.67461 7.02471 -3.24157 5.89197
291 97 2 -6.38457 6.5882 8.87088 0.350591 -1.371 6.83934
289 97 1 -5.96308 5.78251 8.39556 9.24093 1.25958 -11.0852
317 106 2 -4.79776 1.12761 7.24096 31.0166 23.1034 0.26728
316 106 1 -3.9113 1.56305 7.61911 -41.8992 -18.4398 -8.84863
344 115 2 -6.34866 0.625384 6.07412 -4.04382 -4.07674 -0.298637
343 115 1 -6.55077 1.49436 6.59254 -2.08488 -5.35838 -2.34447
287 96 2 -0.671789 1.06415 4.18428 -3.05917 9.81608 4.26168
318 106 2 -4.20761 1.62585 8.59531 11.4711 -0.51394 8.56952
431 144 2 -6.04914 0.915607 9.59907 -11.8771 5.89451 -1.28011
251 84 2 -6.50602 4.77262 6.78943 1.71603 -5.36992 2.61337
512 171 2 -0.15502 5.41612 4.61509 -6.92579 -7.85576 8.16997
579 193 2 -1.70226 6.28723 7.62774 -3.3288 2.01757 2.10857
596 199 2 -0.82872 3.99231 6.17485 1.49196 3.3413 -3.03139
597 199 2 -0.0604716 5.25518 6.93912 -3.03261 -4.4149 -0.557742
595 199 1 -0.0113788 4.62148 6.13102 0.647993 -6.40791 -0.47742
290 97 2 -6.03391 4.9283 8.93747 -4.10623 -1.19428 8.72926
410 137 2 2.87348 6.41855 3.33754 3.10833 2.75519 0.501488
233 78 2 6.04343 6.35789 5.65454 -4.85231 -1.36046 -5.92151
513 171 2 0.509696 6.13729 3.32667 -11.0939 -0.781847 -2.08651
522 174 2 2.31263 3.60198 4.32178 -0.597434 -9.1023 0.496358
571 191 1 3.89369 6.69185 5.04854 -1.41603 14.1172 -19.0346
345 115 2 6.96317 1.64178 6.50874 0.778378 2.37602 5.97299
373 125 1 5.32617 3.95503 4.52307 -1.75603 -17.2134 10.6046
375 125 2 6.09303 3.29753 4.68526 2.87755 14.2122 -9.54844
325 109 1 5.74294 5.12768 8.68236 -25.1718 -5.8636 -6.32881