ITEM: TIMESTEP
5500
ITEM: NUMBER OF ATOMS
648
ITEM: BOX BOUNDS pp pp pp
-7.3069573817181839e+00 7.3069573817181839e+00
-7.3069573817181839e+00 7.3069573817181839e+00
-1.6237683070484987e+01 1.6237683070484987e+01
ITEM: ATOMS id mol type x y z fx fy fz
269 90 2 -7.27827 -3.90863 -10.705 5.78971 4.07723 -5.27678
75 25 2 -1.15424 -1.73609 -16.2101 5.87341 -4.69804 5.92969
268 90 1 -7.03585 -4.09066 -11.6913 -20.525 -15.8319 1.88683
129 43 2 -0.784468 -1.66415 -13.8831 -0.78485 -6.72621 8.03931
26 9 2 -6.90675 -5.93886 -14.5872 0.552097 13.2855 9.3973
25 9 1 -6.60494 -4.99574 -14.2778 -2.17967 -21.4653 -7.79471
27 9 2 -6.64252 -4.96384 -13.2448 1.6785 5.3235 -4.89953
270 90 2 -6.57359 -3.23936 -12.077 4.56643 0.651706 11.8306
189 63 2 -1.42069 -4.129 -14.652 -4.47296 3.73157 -0.572501
187 63 1 -1.66801 -4.76165 -15.4312 7.68117 -13.3306 -3.10286
128 43 2 -1.4582 -2.79225 -12.7752 1.82361 1.43843 0.858198
127 43 1 -1.35123 -2.50817 -13.7709 -1.02899 7.83254 -18.118
585 195 2 -4.45727 -5.64015 -10.7477 4.83789 10.0899 -4.63895
141 47 2 -4.60949 -2.50657 -12.547 0.371255 0.995317 0.308211
139 47 1 -5.38503 -2.13924 -11.9976 7.66823 5.22086 -14.4825
633 211 2 -1.5743 -3.14188 -10.2912 5.72352 -7.46395 -3.54613
631 211 1 -1.47109 -3.33619 -11.2956 11.992 -1.65649 2.88465
632 211 2 -0.553601 -3.78524 -11.5064 -16.0916 -0.271248 2.59689
72 24 2 -5.88631 -5.10195 -15.9731 10.5336 12.7635 21.0083
583 195 1 -4.34212 -6.50932 -10.2514 -12.8535 -7.18011 5.81439
584 195 2 -5.05053 -7.16431 -10.577 -0.936628 -3.74051 -0.542221
140 47 2 -4.9942 -1.63156 -11.2158 2.39503 3.3975 9.74677
543 181 2 -0.946373 -6.83995 -10.4946 5.7806 5.80125 -4.62243
196 66 1 -2.88136 -0.506114 -10.7149 0.223701 4.89784 11.3835
198 66 2 -3.26089 -1.00417 -9.90634 -10.5289 -4.59264 -3.88196
197 66 2 -1.87273 -0.575113 -10.5083 3.62222 -2.09524 -7.09015
18 6 2 -2.47263 -6.48218 -15.6454 10.1473 5.02394 10.9848
16 6 1 -3.1388 -7.15574 -16.0147 -5.37896 6.2199 -14.1887
531 177 2 1.41118 -0.542062 -12.2246 -7.12712 2.16134 0.83411
55 19 1 0.493572 -0.241465 -15.3508 6.0817 1.86985 -25.0035
449 150 2 6.33361 -1.08825 -13.7623 -8.8634 -9.6114 7.65653
206 69 2 4.48829 -6.50296 -9.75382 3.79277 7.4267 -5.16175
448 150 1 6.16337 -0.568404 -12.8909 10.4686 9.46294 -7.70726
122 41 2 5.04702 -0.79028 -9.96972 2.97961 2.66524 6.02073
90 30 2 7.25067 -3.48375 -14.7265 -1.85808 5.83881 8.95542
57 19 2 1.49777 -0.428747 -15.4797 -7.28138 -6.0797 13.3775
88 30 1 6.49758 -2.78433 -14.5905 -0.0634399 -3.68198 -21.7328
515 172 2 5.2696 -5.44046 -13.6782 8.27516 -0.559174 5.549
161 54 2 3.66175 -1.41676 -15.4837 -11.0185 -1.97177 14.8117
162 54 2 2.74837 -2.7138 -15.7886 -5.37385 2.03262 7.48048
160 54 1 2.87373 -1.96251 -15.0933 21.5908 6.07888 -35.8604
179 60 2 2.73036 -2.90337 -13.8646 -5.0327 -3.79736 5.97312
178 60 1 2.64921 -3.63197 -13.119 19.05 0.208575 6.75871
180 60 2 3.59089 -4.05832 -13.0062 -6.22216 2.54665 -2.97186
483 161 2 2.7499 -2.57201 -11.2791 -16.8909 7.34524 -3.62181
481 161 1 2.20442 -1.78396 -10.8957 8.05048 -8.16238 0.0200027
516 172 2 6.06963 -4.38701 -12.5279 -7.7495 -5.87637 -9.90027
514 172 1 5.20752 -4.59316 -13.0807 -4.23666 -0.0264029 8.10906
205 69 1 5.37286 -5.95372 -9.76688 -2.68415 -4.8658 -0.579978
201 67 2 1.30195 -4.36294 -12.7976 1.25103 -12.8956 -5.03011
200 67 2 0.630295 -5.97736 -12.6915 6.28036 -7.20157 2.09051
199 67 1 0.473987 -4.9771 -12.6236 -14.0421 21.0398 9.27355
123 41 2 4.95462 -0.0087607 -11.4158 -1.0443 -8.72758 -0.764328
121 41 1 4.44961 -0.178116 -10.5342 4.7843 3.05496 -3.54997
482 161 2 2.90374 -1.20777 -10.4188 0.767187 9.11856 -1.80983
450 150 2 7.01628 -0.0228382 -12.7778 -5.85198 1.36908 7.21854
433 145 1 5.62836 -6.73288 -14.7879 -8.05219 5.79995 -26.3234
435 145 2 5.04173 -6.40257 -15.5882 7.37033 -1.38439 13.5053
170 57 2 2.60403 -5.81563 -10.0612 -7.34874 6.54794 -3.2983
169 57 1 2.81724 -6.77801 -9.8317 9.94821 0.667409 -3.44639
282 94 2 0.396688 -1.12155 -10.2535 -11.7243 -1.74491 11.8318
207 69 2 5.71304 -5.92724 -10.731 -1.76636 0.689221 5.58511
626 209 2 0.247931 -5.37854 -15.528 4.26725 -0.0217273 5.59633
89 30 2 5.69871 -3.34333 -14.2541 3.72261 5.67294 7.02032
625 209 1 1.25636 -5.446 -15.7083 0.285538 -3.45316 -11.652
627 209 2 1.57493 -6.41974 -15.5135 -5.90582 5.105 0.415584
635 212 2 -0.582764 4.38987 -13.9249 12.892 2.5057 0.290522
381 127 2 -3.51927 0.896381 -11.3906 1.81318 -7.94041 1.83211
9 3 2 -0.917411 2.90481 -11.0712 6.24412 0.182145 -2.14233
639 213 2 -4.12888 1.38003 -9.77454 -2.52604 11.1584 -1.83423
379 127 1 -3.90821 1.84203 -11.5455 3.79686 0.236382 -5.0971
8 3 2 -2.60702 2.78809 -10.9495 -3.31534 -5.64618 -6.95353
7 3 1 -1.80555 3.42224 -11.0119 5.09975 7.14373 2.7514
329 110 2 -4.7861 4.07484 -11.7932 -0.95322 -2.40676 5.48461
380 127 2 -4.06363 1.9549 -12.5394 -3.9035 -0.477551 -3.82352
555 185 2 -3.2707 3.3993 -15.6405 4.56362 0.702298 -0.455844
328 110 1 -5.64225 4.35685 -12.2703 2.96152 4.36643 7.17459
553 185 1 -2.4611 2.79277 -15.8951 -11.2161 1.017 14.8202
554 185 2 -2.2014 2.3215 -15.0249 3.65821 2.2802 -7.46594
368 123 2 -0.785947 6.74122 -12.153 -2.55647 -1.99309 -4.10356
216 72 2 -6.97112 5.56144 -10.1327 -17.1851 -1.02104 -0.32166
214 72 1 -6.9118 6.23801 -10.91 18.5545 13.6733 -5.60457
330 110 2 -6.01251 5.21589 -11.7982 0.322573 -9.46749 -5.58384
84 28 2 -1.67436 4.43465 -9.77485 -6.26026 3.15048 -7.34518
644 215 2 -6.92408 3.10228 -12.2122 -2.16681 -1.44109 -7.69257
519 173 2 -4.69858 4.29148 -13.6606 -4.56917 -0.599962 0.88683
517 173 1 -4.43687 4.26356 -14.6521 4.05063 -6.68483 -1.44799
518 173 2 -5.09793 4.91437 -15.0739 -1.71552 7.51774 -12.0517
130 44 1 -6.0425 6.27389 -16.0928 4.11033 0.765359 -6.17648
529 177 1 0.689816 0.130896 -12.5332 7.63387 -2.14035 -3.72501
530 177 2 0.58574 0.0632919 -13.5572 1.0589 -0.300733 2.13167
215 72 2 6.87184 6.43989 -11.489 -1.17531 -12.0833 10.8149
636 212 2 1.09494 4.31657 -13.5304 1.97473 0.237619 -6.36271
367 123 1 0.199971 6.92483 -12.0199 0.169981 3.62968 2.33548
369 123 2 0.734032 6.26281 -12.5754 0.295756 -4.28456 -5.91062
634 212 1 0.331508 4.85253 -13.9867 -23.2201 0.167344 1.19814
237 79 2 6.34063 4.70847 -12.5182 -4.95963 -1.3621 -10.1164
236 79 2 5.85898 5.29364 -14.0812 -0.980029 -0.640652 16.3629
292 98 1 2.63592 5.11516 -10.3656 -3.23644 -3.98345 -15.6652
293 98 2 2.58249 4.70371 -11.2998 2.81181 1.19824 1.85791
294 98 2 2.95396 6.08631 -10.5138 -3.86242 -4.57408 11.0046
645 215 2 6.8025 2.24915 -11.163 -11.5992 -1.0774 -11.2882
224 75 2 0.811852 1.61956 -11.6982 11.226 5.30152 2.8455
223 75 1 0.79504 2.50234 -11.1426 -10.8548 5.76214 8.71242
235 79 1 5.91976 5.46606 -13.0669 5.11991 -2.77496 0.415931
643 215 1 6.84457 2.51311 -12.1807 11.6363 8.48059 6.35894
539 180 2 4.03793 1.78392 -10.8817 -13.4795 10.0638 -6.13736
540 180 2 4.8579 2.26925 -12.1095 -5.0075 12.1209 -1.92656
225 75 2 1.68933 2.97672 -10.9529 -3.43419 -18.076 -10.6239
538 180 1 3.95347 2.47039 -11.6535 20.9032 -20.4068 6.17379
434 145 2 5.818 6.90531 -15.0272 -1.4675 2.93582 10.357
334 112 1 4.67421 4.99453 -15.6006 -2.29049 3.55074 -0.914481
271 91 1 2.72747 4.14267 -13.3695 17.6372 -3.31871 9.86212
272 91 2 3.33162 4.59211 -14.0653 -1.55631 0.586468 3.32074
273 91 2 3.30275 3.54212 -12.7424 -4.62969 -2.23962 -3.26297
599 200 2 2.64066 6.14752 -15.9715 6.0256 -6.71029 0.348682
245 82 2 5.97778 1.74192 -15.8418 11.6714 -9.05796 8.23487
600 200 2 1.34197 5.7999 -14.9515 -2.00819 4.55893 -1.18012
598 200 1 1.87602 6.54111 -15.4454 -4.36518 5.09162 1.51864
244 82 1 6.54956 2.59721 -15.974 1.10623 39.545 6.67353
246 82 2 7.29504 2.86821 -15.3216 -6.7844 -19.4362 0.0492855
335 112 2 5.04439 4.11107 -15.2602 2.16723 -8.81117 -8.2291
541 181 1 -1.00742 -7.04615 -9.50355 -0.584624 -14.2316 17.0032
190 64 1 -1.69874 -3.23748 -8.44369 -6.50289 3.69489 -4.73798
191 64 2 -2.67192 -2.96093 -8.66731 8.91854 -2.09325 5.98059
192 64 2 -1.08049 -2.41836 -8.40042 -2.80667 0.388479 -3.42129
363 121 2 -5.01051 -6.34736 -8.54069 5.9541 -0.717254 17.8717
361 121 1 -5.00132 -6.3266 -7.49235 18.504 -4.27702 -21.6379
425 142 2 -0.465692 -4.24954 -7.3614 1.49541 2.68587 -7.0247
22 8 1 -2.86676 -1.96318 -4.48839 8.55373 -6.91654 12.5498
24 8 2 -2.91666 -1.30523 -3.686 -7.59271 -1.9763 -7.93212
23 8 2 -2.82525 -2.92908 -4.14781 2.54829 6.90717 -2.04475
80 27 2 -5.37333 -6.97878 -5.68242 2.46507 3.05886 -10.0715
602 201 2 -6.49562 -6.0422 -7.15424 1.54812 3.44201 -0.728135
489 163 2 -1.73737 -6.64075 -7.75586 -3.90844 -3.72975 -3.71934
362 121 2 -4.05068 -6.68606 -7.27337 0.475198 1.72642 -1.22274
172 58 1 -5.82798 -3.49193 -4.09783 15.2198 -5.21299 36.3226
487 163 1 -2.34528 -6.99919 -7.00524 -0.674119 5.14585 6.7626
618 206 2 -4.36723 -3.43601 -5.67646 -3.59819 -6.29501 -6.50371
616 206 1 -4.49002 -3.82553 -6.6226 2.98873 8.55683 1.41221
617 206 2 -4.76673 -4.8162 -6.62144 3.69234 3.64951 -1.54468
470 157 2 -1.91745 -5.45749 -5.45413 0.821686 -3.84215 -5.28576
283 95 1 -3.89226 -0.389799 -6.2992 9.93547 -10.1061 -18.0784
471 157 2 -1.02859 -4.02807 -5.53683 -2.80575 -13.4237 5.0477
469 157 1 -1.53563 -4.68626 -4.91085 -3.18181 15.0298 5.87675
485 162 2 -4.40856 -1.40865 -8.13271 -2.65427 7.68545 -7.77185
280 94 1 -0.405584 -0.892383 -9.62665 13.0686 6.69159 -13.6611
484 162 1 -4.33198 -2.21489 -8.76174 9.22086 4.83006 25.3816
486 162 2 -4.39379 -2.90557 -7.98162 -2.31941 -7.37623 -10.4968
261 87 2 -6.56626 -3.84814 -8.38841 7.97484 3.78008 8.66872
338 113 2 -6.67611 -1.27416 -5.11273 -2.48144 6.33779 -0.0443496
337 113 1 -6.76476 -1.9537 -5.85284 -7.25155 18.7081 -20.34
339 113 2 -6.19178 -2.75035 -5.53912 -8.21035 -2.19461 1.62241
284 95 2 -3.38713 -0.982412 -5.61715 -9.9883 -12.2786 3.45688
305 102 2 -0.153746 -0.518569 -4.65516 0.318771 0.566294 -3.77834
174 58 2 -5.98594 -2.70922 -3.44201 0.824361 -5.10016 -9.94484
594 198 2 -1.58556 -4.26593 -3.33658 0.586182 -2.66181 14.6102
173 58 2 -5.73795 -4.31624 -3.47444 -2.49314 0.221707 -5.74469
552 184 2 -5.57124 -6.19417 -3.34661 -0.572773 -10.3247 0.352923
424 142 1 0.344121 -4.15586 -6.74008 2.70512 17.2813 -1.21625
601 201 1 7.17278 -6.27176 -6.81041 -8.41283 -8.54385 4.89385
621 207 2 1.9874 -2.38138 -5.01391 -9.8452 5.93911 7.05701
171 57 2 2.05074 -7.18732 -9.3015 -6.20178 -3.83469 2.49945
426 142 2 0.715728 -5.06129 -6.45032 -0.543023 -14.5545 -0.0420127
260 87 2 6.66323 -4.63326 -8.89696 -0.419974 7.25525 5.22637
342 114 2 1.76611 -6.65151 -5.20159 1.04537 -3.03787 -5.76461
603 201 2 7.29098 -7.26941 -6.63713 -10.2496 1.36897 3.14122
259 87 1 7.12624 -3.7183 -8.78042 -10.0039 -14.7248 -21.1147
548 183 2 4.69699 -5.41686 -8.02242 5.26405 5.28281 -2.7199
547 183 1 4.62007 -5.40437 -7.00608 -2.55322 2.43279 1.85346
549 183 2 5.564 -5.41316 -6.58382 2.1006 0.255031 -12.5319
412 138 1 1.81908 -3.77578 -3.81672 11.2503 20.9963 -8.90741
413 138 2 1.19724 -4.34049 -4.38452 -3.6111 -7.15342 -0.21171
69 23 2 6.65733 -2.09009 -8.85047 4.37737 5.44737 20.0646
67 23 1 6.43212 -1.10562 -8.59302 -10.3898 15.8229 -15.4212
307 103 1 3.8684 -6.71943 -4.91925 9.49252 0.781735 -12.5867
194 65 2 2.64765 -2.38828 -3.3103 0.415106 1.85246 5.57511
308 103 2 4.07564 -6.25046 -5.83051 -18.0783 8.50156 3.89295
309 103 2 4.73509 -7.24695 -4.88399 1.35952 -21.2935 11.8498
68 23 2 6.65008 -0.833958 -7.62582 6.00052 -17.5721 -4.01401
340 114 1 0.978453 -6.65754 -5.86343 4.15092 7.47767 11.1922
620 207 2 1.58445 -1.68416 -6.38379 -6.1005 3.76855 -5.56192
619 207 1 1.60192 -1.49905 -5.38625 8.87101 -5.50966 -7.45801
258 86 2 4.93009 -5.78268 -3.88202 -12.0919 2.00353 2.34082
542 181 2 -1.43772 6.62725 -9.39481 0.56912 7.0067 -0.0275626
281 94 2 -0.252961 0.0688203 -9.2885 4.29209 -6.56127 8.05507
637 213 1 -4.52851 1.73263 -8.89936 -0.442989 -4.89439 11.0275
638 213 2 -4.26137 2.68661 -8.65751 1.69045 -1.257 -5.46091
445 149 1 -6.81225 4.28638 -8.79714 32.3772 21.8974 12.7105
488 163 2 -1.993 6.72293 -6.66119 0.1302 2.89539 -1.19255
79 27 1 -5.59096 7.02926 -4.90105 -16.0324 9.23207 15.5802
285 95 2 -3.28496 0.444333 -6.32029 -11.3103 3.1432 3.684
623 208 2 -3.95957 5.07874 -6.85001 -7.34896 6.51681 -1.70655
624 208 2 -3.44621 5.26176 -8.42029 -3.19211 1.91094 3.89269
622 208 1 -4.28996 5.18977 -7.82201 1.44686 -8.54972 -8.00797
83 28 2 -1.60812 4.38095 -8.1508 -6.18408 3.89922 -6.36606
82 28 1 -1.83715 5.0308 -8.94103 9.39287 -0.738576 7.99777
446 149 2 -5.89226 4.75506 -8.56408 -22.4124 -16.2254 -1.85703
562 188 1 -6.02232 1.03192 -6.85705 -5.74173 -12.9501 6.15999
479 160 2 -0.218171 2.08015 -7.6584 -11.6921 -5.00146 11.601
563 188 2 -5.42984 1.21979 -7.67809 -4.73875 12.4758 -7.54303
81 27 2 -4.92612 6.23552 -4.91694 3.82056 -2.30689 -1.22388
564 188 2 -5.45818 0.25016 -6.47215 -4.6995 7.14007 4.83263
321 107 2 -3.16004 1.97792 -4.58013 -2.36666 -7.82155 -11.4746
319 107 1 -2.58664 1.63539 -5.37081 1.31864 15.6589 16.4156
477 159 2 -2.04745 2.49231 -6.57029 10.3568 13.5069 -7.60413
320 107 2 -1.87039 1.00305 -4.98316 5.71315 0.601283 3.11242
304 102 1 -0.306913 0.441566 -4.32262 2.92289 -4.74294 3.12366
476 159 2 -0.776748 3.57928 -6.50464 5.21218 1.23484 0.870137
475 159 1 -1.48002 3.17834 -7.14446 -4.36318 -8.99927 12.5992
312 104 2 -3.00052 5.1742 -4.52655 -1.55876 4.87771 -1.425
310 104 1 -3.82925 5.14268 -5.13431 10.5719 -23.4204 1.53362
311 104 2 -4.21295 4.18376 -5.12289 0.222311 7.00281 5.62402
86 29 2 -0.270142 6.14615 -4.14391 -6.19712 8.19831 -7.36971
151 51 1 -4.98821 2.5973 -3.60892 2.53124 16.58 9.90119
153 51 2 -5.93226 2.1865 -3.64058 3.95053 -11.2013 -1.61729
85 29 1 -1.1136 5.83437 -3.65739 12.6923 -5.60581 4.0965
183 61 2 -7.24458 2.47558 -9.3689 -2.91694 8.17629 5.51849
98 33 2 2.35872 3.91655 -9.12268 18.2797 -8.14308 10.0099
447 149 2 7.28332 4.20855 -7.90725 -3.6383 1.16999 -7.4769
456 152 2 7.14004 6.58064 -4.33323 -1.83747 -2.87947 12.6444
12 4 2 0.342169 6.5855 -8.39648 -1.31595 -5.31473 -5.80509
10 4 1 1.17328 6.13598 -7.99558 2.22423 20.1318 4.17674
11 4 2 1.33719 5.19528 -8.35446 -1.01617 0.719177 -2.48796
455 152 2 5.7313 6.22783 -3.30037 19.1316 -3.95607 -5.6672
454 152 1 6.16952 6.24289 -4.25173 -11.643 5.68191 -8.95401
480 160 2 0.749237 2.03553 -8.85075 14.8464 -9.76732 -1.54725
306 102 2 0.611262 0.887202 -4.36606 -0.409605 2.27042 -5.43994
478 160 1 0.41887 1.42256 -8.10313 -11.9079 3.30513 -12.4096
118 40 1 0.886421 4.03979 -5.96899 -19.9875 -4.38769 10.4073
503 168 2 6.76744 1.08381 -5.44982 -1.72285 -1.431 -2.07054
97 33 1 2.33964 3.30771 -8.27506 -24.5687 27.1001 -9.47828
99 33 2 3.17656 2.69412 -8.18676 7.09712 1.62411 -3.37299
148 50 1 4.17899 6.39155 -7.72309 1.6042 -8.73979 5.29705
149 50 2 4.66757 7.21251 -8.07884 -6.84936 0.290465 2.69274
150 50 2 3.15258 6.48332 -7.68402 10.0253 0.0994592 -3.50818
341 114 2 1.11328 7.22198 -6.55871 2.33196 -8.41233 -5.11704
120 40 2 1.56757 4.15778 -5.20779 5.9479 1.01193 -12.1288
119 40 2 1.3366 3.7868 -6.85706 13.6794 0.415842 1.49396
464 155 2 4.88329 1.48246 -8.90726 3.34078 2.73445 -4.38236
465 155 2 5.04112 1.5943 -7.26039 -7.82365 -1.28279 2.12375
463 155 1 4.42554 1.80077 -8.05604 -2.55998 -6.37354 10.2662
181 61 1 6.55958 1.93461 -9.69212 11.2244 -21.768 2.333
182 61 2 6.58952 1.01102 -9.23869 4.28666 2.10112 -3.13233
502 168 1 5.86887 1.55126 -5.61271 11.5413 2.61354 -5.36084
606 202 2 2.66814 0.346271 -5.39773 -0.710966 -4.57894 -1.78266
604 202 1 2.62111 1.35657 -5.5285 -22.2673 0.153674 -6.51527
605 202 2 2.10734 1.55015 -6.40972 10.6792 -4.60437 9.00667
504 168 2 6.13338 2.40969 -6.10222 -3.40456 3.89049 3.51006
209 70 2 5.26995 5.19965 -7.13733 -7.89112 7.17616 2.44571
468 156 2 4.28487 3.72799 -5.4558 -8.62797 2.26014 0.921392
467 156 2 2.94808 2.86222 -4.92984 11.6825 -1.54189 -7.70631
466 156 1 3.45132 3.76893 -4.85248 5.11068 1.62894 10.2606
210 70 2 6.08179 5.08602 -5.62226 -7.85265 1.79087 -13.1397
208 70 1 5.91239 4.6463 -6.55232 16.1597 -12.255 14.9753
234 78 2 4.96231 0.647022 -4.22324 -0.0044905 -5.15541 6.17503
230 77 2 -2.28691 -6.38879 -1.6318 2.62719 4.14257 -6.95462
96 32 2 -1.63301 -0.0489316 1.64491 7.54873 -5.06528 -1.4867
490 164 1 -3.68256 -3.73236 1.38127 12.9703 5.06046 20.3339
492 164 2 -3.72568 -4.58274 1.93852 -3.90524 -3.35904 -8.18436
491 164 2 -3.79533 -3.91522 0.356145 -7.5792 4.8047 4.59421
551 184 2 -6.15499 -6.12597 -1.74521 7.21823 5.38938 -11.4575
349 117 1 -3.81601 -0.00875061 -2.82109 9.35123 -13.5882 10.1915
351 117 2 -4.48031 -0.446131 -2.1678 -3.75816 4.96574 -10.0986
550 184 1 -5.69523 -5.59852 -2.52246 -7.30718 -7.52234 9.88231
347 116 2 -2.63775 -2.41806 2.00788 7.4329 -9.46101 -2.56171
567 189 2 -4.80688 -4.53017 -1.55753 1.60136 -3.11853 -9.26642
566 189 2 -3.26827 -3.74432 -1.59618 -1.76256 -9.70582 -5.76069
348 116 2 -1.19441 -2.05513 2.88332 -2.20118 -1.21011 -4.71484
565 189 1 -4.18861 -3.83305 -1.1227 0.549703 11.8418 1.20364
346 116 1 -2.17824 -1.82797 2.71334 -7.85952 15.7141 7.9716
222 74 2 -2.6625 -6.39212 2.97124 -1.97453 3.27766 10.5548
592 198 1 -1.81656 -4.09823 -2.32421 4.90848 2.72843 -3.21224
593 198 2 -0.962292 -3.92613 -1.75272 -2.70081 -3.72804 -8.22194
608 203 2 -5.08532 -0.905293 2.49774 -14.0149 14.8797 1.53875
277 93 1 -5.96963 -1.38655 -1.68675 -6.36618 9.11139 -7.75005
279 93 2 -5.24332 -1.98409 -1.29789 -3.59864 -11.0785 9.54371
525 175 2 -6.63242 -5.43253 3.20432 -4.16735 -15.7672 -19.9257
613 205 1 -6.63001 -6.52482 -0.0967229 11.7994 -4.5603 -8.66074
615 205 2 -6.78873 -5.49966 -0.0374455 -5.1217 2.00514 4.26035
278 93 2 -6.77662 -1.23822 -1.0433 8.64512 -7.16611 5.84114
220 74 1 -3.24095 -7.06995 2.4906 15.3463 -5.53913 -10.9324
607 203 1 -5.31335 -1.85273 2.75936 28.4392 -10.6063 2.05607
609 203 2 -4.48277 -2.35802 2.41419 -15.8668 -9.5404 -2.59082
614 205 2 -6.44605 -6.88716 0.856972 5.02337 3.35785 5.48573
557 186 2 -3.14968 -0.0353713 2.95148 0.742587 -0.629998 1.91849
419 140 2 1.36591 -2.26265 2.51913 1.91904 1.74388 -2.03427
414 138 2 2.2573 -4.32228 -3.06236 -11.4801 -12.5257 -3.34214
193 65 1 2.79618 -1.54776 -2.72572 -1.267 4.24614 4.51798
195 65 2 1.84087 -1.2598 -2.47526 10.1542 4.67817 3.04717
545 182 2 5.00568 -3.40006 2.71418 -1.4476 -13.0123 1.33971
248 83 2 6.06432 -4.47711 -0.0829009 -0.242213 1.8436 -0.560436
157 53 1 0.485501 -4.09761 -0.732052 -9.55772 -2.72593 0.97075
158 53 2 0.765551 -3.95079 0.237219 4.30423 3.21052 0.468114
159 53 2 0.934135 -4.94137 -1.09984 7.50049 1.94968 -3.68129
247 83 1 6.97796 -4.05418 0.0805269 -3.74643 -8.19349 -1.47838
249 83 2 6.82518 -3.0997 0.392554 4.28457 9.94169 0.642771
20 7 2 3.21283 -5.87944 -2.37935 -10.5841 -9.08989 -0.265219
544 182 1 4.71516 -4.38167 2.46409 0.749713 3.89058 -11.9158
233 78 2 4.22375 -0.383778 -3.07106 7.3521 4.23491 -4.87195
19 7 1 2.18352 -5.87657 -2.25829 10.8704 13.848 11.8048
373 125 1 3.7232 -3.69111 0.0802668 15.6987 -9.30199 -2.43191
374 125 2 3.89234 -3.65736 -0.931708 -12.6399 6.0097 7.33196
375 125 2 2.89921 -3.20207 0.455735 0.528661 -0.267362 -6.48291
418 140 1 1.5159 -3.12946 1.97753 -4.85222 8.53988 -5.84626
420 140 2 0.839447 -3.79884 2.32121 3.22519 -13.1807 3.60411
257 86 2 6.22539 -5.31519 -2.9878 1.99646 4.03989 3.09438
256 86 1 5.21306 -5.34747 -2.99927 3.74057 0.116396 4.36848
314 105 2 5.75206 -1.01409 0.501501 -5.50883 4.13425 -4.86651
250 84 1 4.06767 -0.52779 0.432607 -10.0074 7.94149 -8.71202
252 84 2 3.96013 -0.786803 -0.552652 1.02571 -2.59335 4.5424
117 39 2 6.51208 -7.2182 0.201787 -1.60916 -1.10352 8.39778
313 105 1 6.75549 -0.966151 0.283305 3.21895 -5.15652 6.10348
239 80 2 0.0348972 -0.0858215 -0.948631 -9.42441 -3.21099 0.627403
21 7 2 1.74608 -6.78268 -2.41937 7.95511 -14.1484 -3.14752
315 105 2 7.14566 -0.302867 0.98709 5.34667 -2.40882 -7.72053
546 182 2 4.40521 -4.32935 1.46142 -1.40138 6.01062 15.2421
577 193 1 0.966393 -5.95926 2.81918 -38.2476 10.4002 -1.58981
578 193 2 1.71371 -6.46869 2.34262 17.5855 3.20156 7.29281
512 171 2 4.17528 -6.89269 1.31905 -16.3768 -3.19222 1.76483
511 171 1 3.36145 -6.64671 1.93408 25.355 -12.7455 -15.6734
513 171 2 3.81541 -5.85842 2.41134 -7.52847 10.1601 5.20974
350 117 2 -3.91841 1.00013 -2.78782 -5.03086 7.8324 -0.261456
109 37 1 -7.06369 0.861545 -2.98083 -1.81579 23.5997 -13.938
110 37 2 -6.82227 0.0346323 -2.43624 -1.72962 -6.63205 1.52267
266 89 2 -0.646271 6.54182 1.4005 -2.27115 3.87136 -10.9992
265 89 1 -1.38233 6.1019 0.836918 -2.62307 7.38701 22.5879
229 77 1 -2.17932 7.22419 -1.47409 2.68072 -6.33538 0.383827
267 89 2 -1.80641 6.69699 0.103692 8.88457 0.593422 -8.78851
510 170 2 -1.2533 4.63173 0.647494 1.73527 -15.2405 -7.57209
221 74 2 -2.59146 6.99553 1.90768 -9.05434 -3.32587 0.924375
508 170 1 -1.08843 3.59602 0.463981 16.5262 3.69647 20.3795
509 170 2 -0.334209 3.32991 1.14861 -10.7085 2.52688 -14.1901
94 32 1 -1.38301 0.134492 0.674646 -9.59196 7.18121 -6.06459
95 32 2 -2.19983 0.528578 0.202617 7.3479 -2.05005 -1.96533
231 77 2 -1.64254 6.77617 -2.24856 -11.1809 8.7056 3.44677
429 143 2 -6.1592 6.6856 3.15957 -5.54965 -4.84423 13.2925
37 13 1 -2.50617 2.43494 -1.56674 -9.61097 -4.62958 8.63946
409 137 1 -5.70821 3.67235 -0.441905 10.2859 -9.86725 6.69604
410 137 2 -4.95515 2.98421 -0.3987 -8.58745 -3.37977 2.48005
152 51 2 -5.01705 3.18022 -2.76347 2.62449 -3.26786 -6.81674
104 35 2 -5.41821 6.86705 -0.670086 0.677862 2.09022 -2.07755
411 137 2 -5.1719 4.5466 -0.37654 -11.8175 9.76829 -9.49873
103 35 1 -4.81739 6.15321 -1.09383 -5.11832 -6.79405 6.25901
105 35 2 -3.84945 6.44063 -1.19317 9.80126 8.9255 -2.98081
39 13 2 -1.94087 2.6874 -2.36519 3.61308 2.44985 1.17676
397 133 1 -6.27531 3.90297 2.93481 -2.87949 5.10175 -19.9565
398 133 2 -5.68468 3.98088 2.098 8.77516 -8.58292 8.32383
38 13 2 -2.13931 2.76409 -0.65663 5.11657 3.00798 -10.7626
428 143 2 -4.83747 7.23676 2.43039 6.33894 8.09436 -3.56632
427 143 1 -5.86693 7.24551 2.3637 -5.557 2.99997 -9.45535
87 29 2 -0.693413 5.17345 -3.00584 -4.18671 -6.0424 5.54087
360 120 2 -5.89481 1.16322 2.33884 -7.27748 -0.243138 -0.819427
399 133 2 -7.15681 4.29048 2.59137 -7.09119 -3.98133 8.38342
33 11 2 -0.132664 3.78089 -0.997758 2.26261 14.5934 7.61999
325 109 1 -3.57745 3.41905 1.50554 1.93691 -20.6408 18.0036
326 109 2 -2.60441 3.43993 1.18716 1.61969 6.72718 -5.84181
327 109 2 -3.58156 2.68105 2.23155 -7.81884 10.0001 -6.06356
358 120 1 -6.77841 0.773641 1.9917 9.96706 2.60359 4.01796
111 37 2 6.52677 0.984237 -3.14478 14.9356 -17.8176 9.62786
443 148 2 1.39959 5.0735 -2.47687 16.0413 -3.96332 -0.506455
442 148 1 1.84497 5.95521 -2.79357 -22.5645 27.1346 0.803586
444 148 2 2.77208 5.9897 -3.20404 6.70304 -17.8864 -1.0876
232 78 1 4.98816 0.300834 -3.24286 -21.5006 1.27919 -4.62127
115 39 1 5.64566 7.20499 0.741516 -17.2031 -2.47398 -5.53491
251 84 2 3.32816 0.143288 0.664157 4.55275 -7.18982 3.48305
177 59 2 6.96214 3.56794 0.310957 9.90647 5.52574 4.55786
31 11 1 0.442892 3.88648 -1.84469 -18.2437 -26.7348 -1.80407
45 15 2 5.10251 4.56198 -1.9262 3.98322 -0.119346 5.23132
43 15 1 5.27237 5.55819 -1.71937 -3.2241 7.91077 -4.25382
240 80 2 0.105043 0.120126 -2.64362 -8.93818 0.238147 -2.42171
44 15 2 5.31471 5.78684 -0.719362 -0.492433 -3.44511 -6.50611
359 120 2 7.0609 1.12654 2.55859 -4.01005 -0.259168 1.8954
1 1 1 5.52344 5.10348 2.85886 -15.3765 13.3068 10.3462
32 11 2 0.497192 2.89316 -2.09132 11.8035 9.14814 -7.1209
238 80 1 0.608569 0.175062 -1.75411 11.7817 5.87981 10.5934
134 45 2 4.96227 1.90532 -2.55936 -6.87593 6.79135 -13.6203
135 45 2 4.40044 3.43934 -3.24548 -1.6321 -15.8148 -8.64815
386 129 2 1.76855 2.83744 1.38759 -5.02964 2.60088 2.04504
385 129 1 1.21722 3.38899 2.07525 -7.16429 9.75071 1.39849
387 129 2 1.68354 4.27851 2.34497 3.94304 -12.3129 -1.29938
133 45 1 4.85655 2.93197 -2.47407 1.83747 11.7205 23.9889
176 59 2 5.47218 3.35583 -0.0671406 -9.14076 -0.521136 -0.680137
262 88 1 2.06032 1.80875 0.0634739 1.35893 0.217037 9.31421
263 88 2 1.43369 1.24861 -0.538099 11.3187 -0.445011 -4.38509
264 88 2 3.01949 1.93214 -0.257224 -4.67789 -2.95236 -10.7777
175 59 1 6.02528 3.79756 0.659151 4.82467 -7.00159 -15.6157
116 39 2 5.74127 6.55975 1.52629 11.9996 -2.01826 2.37329
568 190 1 2.6062 5.6113 3.02085 -7.72111 -10.3577 6.23671
2 1 2 5.50378 4.65863 1.91475 4.74193 -6.74486 6.70503
569 190 2 2.67589 6.36068 2.31748 5.08063 8.4288 8.26209
3 1 2 4.54913 5.30476 3.16136 9.09675 -5.38819 -9.26811
92 31 2 -0.246021 -6.73993 6.08632 -2.76801 -6.19337 11.216
520 174 1 -0.520477 -3.04593 5.43566 5.64403 17.2047 -2.08603
522 174 2 -1.42939 -2.89597 5.87898 -1.56604 -8.08724 -0.166367
213 71 2 -6.96111 -3.63437 4.40381 0.530518 -2.51279 10.1651
211 71 1 -6.60661 -2.78707 4.90869 9.11113 -8.98232 -18.7203
212 71 2 -5.86388 -2.49971 4.23782 -9.93387 10.9578 3.88608
521 174 2 -0.109793 -3.97325 5.5482 -6.10177 -8.32202 1.33414
62 21 2 -3.48201 -3.8678 6.16947 -3.57246 -0.175343 -8.43415
61 21 1 -3.52332 -2.86043 5.98713 7.75034 -0.533149 18.7303
377 126 2 -2.45908 -6.30498 6.10328 -13.1958 -12.7971 0.696093
376 126 1 -3.4133 -6.13036 5.76419 5.30547 33.5262 -10.6293
378 126 2 -4.17751 -6.56782 6.27496 5.6887 -11.9494 6.56592
126 42 2 -5.48997 -2.64379 7.05474 -1.75982 1.88261 -3.70588
124 42 1 -5.99456 -2.42206 7.91222 4.14036 2.59551 -8.96351
125 42 2 -5.68758 -3.06766 8.62933 -1.25921 0.555719 11.594
459 153 2 -2.78566 -0.580557 6.69627 -4.0154 -10.7611 0.901778
63 21 2 -3.67808 -2.62489 5.01944 -2.02026 -1.99926 -11.9017
441 147 2 -5.75532 -0.492917 5.8478 -2.35201 3.81488 -2.69768
29 10 2 -5.06739 -0.0147489 8.72422 -5.33311 2.97634 2.23796
457 153 1 -2.44732 -0.137508 7.5425 3.37417 25.0837 -2.56107
166 56 1 -6.46875 -6.64629 8.70117 -30.1702 6.5426 18.2445
167 56 2 -6.76102 -7.06334 9.5883 14.6201 -4.81136 -3.23181
458 153 2 -2.53152 -0.665621 8.39771 0.771551 -12.3421 2.68594
524 175 2 6.26988 -4.94006 3.29981 -3.16218 -8.48809 -18.4643
505 169 1 0.729576 -1.02887 3.54005 9.42766 1.89 -4.99367
507 169 2 1.15492 -0.0823602 3.63335 -13.0076 -3.96195 2.7275
523 175 1 7.21916 -4.97251 3.67747 4.74084 21.2876 35.3851
576 192 2 4.75136 -3.73975 5.66492 2.789 -15.9358 10.0441
301 101 1 5.73662 -2.51027 6.176 -22.5169 14.2894 -12.6213
303 101 2 6.6447 -2.60212 5.68784 5.80398 4.86688 -2.94434
506 169 2 0.252736 -1.3044 4.39501 -1.09755 -0.287208 3.5158
91 31 1 0.3636 -6.04934 5.65825 -8.65362 8.64109 -23.3351
93 31 2 1.09012 -5.6629 6.30208 -4.45465 -2.58522 1.96605
574 192 1 4.17723 -4.56285 5.38767 -5.40045 26.4869 -19.3481
575 192 2 3.74999 -4.22264 4.517 3.40697 -11.2292 -0.925615
451 151 1 1.46928 -6.02988 9.50703 16.4686 26.0658 -9.46857
452 151 2 0.8327 -6.85111 9.52928 -5.12797 3.68871 -1.38728
356 119 2 2.9697 -5.01663 6.41093 -0.298436 3.00634 14.8483
355 119 1 2.15917 -4.90697 7.0645 2.25065 5.60899 7.05777
579 193 2 0.838167 -6.07197 3.83133 8.86903 -3.73246 1.03768
406 136 1 1.57083 -2.15426 7.06188 13.2877 -6.66793 4.2848
407 136 2 0.728534 -2.18171 6.48661 -5.19579 -2.93729 -3.27103
536 179 2 6.63918 -2.16144 3.71085 -7.96136 -10.9381 -5.89075
537 179 2 5.5334 -1.13331 3.27434 -11.0448 -7.02433 -7.78484
535 179 1 5.66264 -2.14669 3.37252 21.5671 31.5094 6.19423
366 122 2 3.11115 -1.01433 5.9586 -3.58402 -6.00609 11.8133
364 122 1 3.7459 -0.449727 5.40599 -1.25832 0.437908 -8.50563
365 122 2 3.11816 -0.0413516 4.71196 4.52389 5.40061 -2.37973
371 124 2 4.2097 -6.20389 5.50817 -21.1492 12.8392 0.239113
408 136 2 1.82504 -3.12873 7.30618 -3.61669 0.0150256 -9.11208
302 101 2 5.08137 -1.87594 5.6775 13.3207 -2.64296 2.69065
370 124 1 3.88104 -7.16853 5.6636 43.0626 -37.4457 1.54478
461 154 2 3.03862 -0.467683 9.42266 -9.62647 13.5534 -10.2832
462 154 2 2.4293 -1.76494 8.35624 -9.29956 22.0973 -6.83241
628 210 1 5.76572 -1.40718 8.52687 9.50624 8.98503 -10.5654
630 210 2 6.241 -1.72971 7.66437 -5.71009 -2.44489 3.2965
629 210 2 4.76701 -1.55022 8.39172 -8.10386 -4.65135 5.22432
460 154 1 2.97337 -1.44276 9.17502 19.0403 -37.2304 19.9401
332 111 2 6.62613 -4.5526 6.55642 -8.31576 -1.44746 9.94484
333 111 2 6.25068 -4.06714 8.12711 -1.35679 2.54884 -7.84977
331 111 1 6.21487 -4.8324 7.45584 15.9454 -15.3307 12.5941
357 119 2 2.22556 -5.44525 7.95168 0.944575 2.35972 -4.26971
168 56 2 7.23925 -6.22192 8.44362 12.6925 3.84501 -17.0889
53 18 2 -6.04799 4.87097 4.34282 7.68312 5.81427 -9.25146
165 55 2 -5.57058 7.16317 7.64644 -3.10651 -4.25201 11.2103
163 55 1 -4.96133 6.51241 7.11837 4.13251 15.1167 -8.47445
402 134 2 -3.78451 5.09061 5.10741 -1.39659 -0.510292 -3.5015
400 134 1 -3.02875 5.16376 4.42488 -5.05291 8.36106 -8.34355
164 55 2 -5.39981 6.43462 6.19007 0.623187 -11.0821 -2.508
52 18 1 -6.09746 5.82307 4.75083 -3.65329 -11.4625 4.45885
440 147 2 -5.95633 1.12591 5.49404 -3.76309 -4.90916 3.8998
439 147 1 -5.35375 0.306138 5.35813 5.79091 -3.36768 7.56263
54 18 2 -7.03486 5.76963 5.19389 1.8 11.3284 5.36853
432 144 2 -3.26372 4.92462 9.42957 5.22266 -10.156 1.31688
431 144 2 -3.77016 6.30505 8.72783 -0.230619 -4.35912 -7.67487
558 186 2 -3.73404 0.684878 4.29003 -14.2687 4.58437 3.27538
556 186 1 -3.63599 0.799823 3.28067 14.2751 -4.34177 -16.0425
401 134 2 -3.38944 5.59138 3.55365 6.22368 -7.46029 15.1125
430 144 1 -2.92875 5.77088 8.96646 1.38412 12.7433 4.10316
46 16 1 -6.10589 4.23394 9.51226 -8.24383 2.51373 19.3213
28 10 1 -4.78847 0.935769 8.97821 2.65639 -9.76993 -1.09105
534 178 2 -1.27227 1.92062 7.61229 -2.68379 -2.94814 1.32045
291 97 2 -2.04426 5.88159 5.66906 -4.55309 -4.01223 -7.01555
532 178 1 -0.520703 2.59136 7.46867 -2.89535 0.690225 -20.2547
533 178 2 -0.404445 2.71592 6.44746 1.04565 0.513485 20.4892
289 97 1 -1.64926 6.48315 6.39939 7.46562 10.4288 13.8578
290 97 2 -2.29772 6.46959 7.2065 8.89559 -8.82214 -5.60304
147 49 2 -1.14023 6.3496 9.37392 -3.94627 -4.18156 -7.40479
30 10 2 -3.98141 1.12412 8.37802 -0.85691 4.98242 0.570436
570 190 2 2.1431 5.90913 3.89536 6.04472 -0.780733 -8.99207