ITEM: TIMESTEP
29500
ITEM: NUMBER OF ATOMS
648
ITEM: BOX BOUNDS pp pp pp
-7.3005012311162822e+00 7.3005012311162822e+00
-7.3005012311162822e+00 7.3005012311162822e+00
-1.6223336069147624e+01 1.6223336069147624e+01
ITEM: ATOMS id mol type x y z fx fy fz
520 174 1 -2.38828 -2.45681 -14.692 -16.7188 8.74321 -27.5399
522 174 2 -3.13166 -2.32179 -15.393 5.51699 -10.7423 14.1636
322 108 1 -4.60303 -0.687516 -11.495 19.6174 26.3331 -14.5116
432 144 2 -1.70909 -2.67756 -11.5269 -10.9703 -4.02988 -12.5068
431 144 2 -2.27757 -2.71212 -13.1283 -7.53143 -16.1115 13.4357
477 159 2 -4.45254 -5.92325 -14.1568 -1.2237 -1.9269 12.2201
324 108 2 -5.57101 -0.970068 -11.6507 -6.50543 -14.7502 7.18829
323 108 2 -4.04906 -1.32128 -10.9312 -4.77129 -10.7233 3.32591
58 20 1 -6.91454 -2.05943 -11.0593 5.28091 -3.56037 13.3894
476 159 2 -3.12068 -5.79475 -15.1195 15.4891 8.0033 -4.40056
475 159 1 -4.11659 -6.01148 -15.1063 -22.3777 -13.0352 3.01323
60 20 2 -6.36666 -2.26556 -10.1927 -11.8333 -6.93048 -18.838
430 144 1 -2.36442 -3.16576 -12.1799 17.5205 13.6137 7.74886
384 128 2 -3.74246 -5.82568 -11.1202 11.7299 7.11114 -14.8276
480 160 2 -5.45106 -6.23213 -10.8476 3.35581 14.5757 -11.561
307 103 1 -1.71085 -5.13264 -15.5646 2.73623 -24.9234 28.6462
471 157 2 -1.23693 -6.05674 -14.3193 9.18842 0.786759 1.40357
308 103 2 -1.73843 -4.12504 -15.4935 -1.27859 18.6886 -9.2386
83 28 2 -2.64505 -4.24463 -10.2022 3.60582 8.92954 -18.7103
249 83 2 -2.2543 -6.995 -12.1801 0.631117 -3.20937 19.1735
247 83 1 -2.50193 -7.20226 -11.1887 15.4676 -12.9041 -10.2367
583 195 1 -6.69655 -4.0188 -15.1905 14.4336 5.37663 -19.3552
521 174 2 -1.7692 -1.68571 -14.9251 18.1609 11.4091 1.60807
585 195 2 -6.42725 -4.04578 -16.1854 -8.11114 -2.87916 10.3003
584 195 2 -5.91657 -4.4264 -14.6864 -2.45866 -2.15865 4.89703
621 207 2 -0.951727 -0.670266 -11.5854 -13.7115 25.3067 -7.18807
619 207 1 -0.629194 -1.39211 -10.9773 37.475 -32.4449 -16.8404
469 157 1 -0.848649 -6.69561 -13.5968 -5.18604 -0.897487 5.49842
382 128 1 -4.09433 -5.31762 -11.9528 -41.6613 -8.6781 -6.86231
383 128 2 -3.46041 -4.64646 -12.3744 15.7204 13.6451 9.51068
478 160 1 -5.71907 -6.78122 -10.0427 -29.2192 -12.0312 10.6025
394 132 1 -0.753807 -0.289514 -15.5686 0.391596 18.6232 -2.72173
128 43 2 5.67872 -1.62386 -15.2057 -4.28001 -0.930659 1.48152
459 153 2 3.03357 -2.59563 -15.1743 9.24081 4.52585 -6.24782
127 43 1 5.66813 -2.57271 -14.7966 -18.0544 20.6605 -0.14624
59 20 2 7.22696 -2.89095 -11.4491 3.33049 5.82679 6.41054
9 3 2 1.45036 -2.30633 -13.297 -6.02629 -1.48975 6.71948
176 59 2 4.97423 -1.9329 -13.0879 -10.4098 18.6809 10.9635
177 59 2 4.93338 -0.521138 -12.1242 14.3228 11.9763 1.72647
175 59 1 4.38889 -1.28596 -12.5093 -9.42032 -41.6943 -16.1175
334 112 1 1.34745 -5.14199 -13.2742 -0.521455 -0.968742 11.5153
620 207 2 0.232085 -1.78764 -11.4802 -26.8162 8.25941 25.5785
8 3 2 2.44641 -2.38995 -12.0328 -37.3965 -0.00534947 -3.93012
7 3 1 1.41967 -2.47772 -12.276 49.0478 8.25519 -14.6807
616 206 1 4.82368 -4.27407 -11.2375 5.64941 2.56221 19.0694
336 112 2 2.26661 -4.95446 -13.6688 11.2424 -2.44238 -8.21647
335 112 2 0.952334 -4.21456 -13.0903 -0.602124 -3.16596 1.64221
457 153 1 2.07794 -2.89169 -15.3023 -17.407 3.93697 7.85165
617 206 2 4.10569 -3.83127 -10.683 2.5686 0.324355 8.56839
618 206 2 4.35965 -4.57006 -12.0844 4.23963 -5.8143 -26.7239
90 30 2 1.4123 -4.96 -10.2519 -5.09699 -1.71344 -11.0978
129 43 2 6.58967 -2.98308 -14.9503 11.9814 -15.4575 -0.0299027
627 209 2 1.81367 -6.70894 -12.0845 -0.22765 11.8327 -0.598969
637 213 1 6.36637 -7.2648 -11.1276 -16.5088 10.4455 -1.46839
470 157 2 0.106141 -6.40141 -13.348 -0.178075 10.9689 -3.68589
639 213 2 6.08805 -6.28283 -11.0209 -1.29034 -4.55671 -2.72187
146 49 2 3.29727 -0.855487 -10.3365 5.97641 -3.27888 -2.26582
199 67 1 4.08244 -6.97561 -15.6238 0.884661 5.73507 -39.7143
220 74 1 4.25516 -4.68087 -13.8362 -18.907 7.77647 6.48141
395 132 2 0.198377 -0.229222 -15.1579 -3.79238 -1.29189 5.67841
222 74 2 4.64433 -5.48939 -14.3044 0.66217 -15.1676 -9.38858
221 74 2 4.51193 -3.85241 -14.3898 10.5816 -0.806274 3.81709
265 89 1 -2.35105 0.848738 -12.1758 -18.2072 -23.5095 23.4428
267 89 2 -3.21851 0.270774 -12.038 15.1498 7.5298 -2.06564
266 89 2 -2.43421 1.32023 -13.0541 -3.97246 9.59107 -20.0499
135 45 2 -6.90368 2.41527 -9.99888 -9.09131 5.38457 -5.19671
133 45 1 -6.41429 1.5654 -10.2937 28.7664 -3.30824 16.3754
45 15 2 -6.9048 0.924818 -13.7905 -1.54647 -5.89462 -1.10541
134 45 2 -6.91407 1.11569 -11.0481 -15.1266 -2.81848 -8.53201
385 129 1 -6.42115 3.97651 -14.2648 6.06304 -3.17676 -1.86965
386 129 2 -5.47981 4.44737 -14.2888 -3.07162 -6.17487 -5.01004
387 129 2 -6.90092 4.52223 -13.5303 -15.118 -4.01418 -0.0307547
169 57 1 -1.57519 5.46942 -13.8843 -11.2293 8.26551 -16.3188
163 55 1 -4.12331 5.02987 -14.4768 46.2656 4.10905 14.9697
171 57 2 -1.05412 6.34325 -13.6439 -8.12739 -1.68831 -0.746499
165 55 2 -3.14525 5.01666 -14.0408 -32.1703 -0.56105 -12.7791
164 55 2 -4.08885 5.88799 -15.0192 -7.53892 3.27598 -3.85093
465 155 2 -0.10116 2.61488 -12.3514 3.27409 3.53206 -7.87774
170 57 2 -1.06946 4.62774 -13.6489 11.9524 -22.8304 13.7301
345 115 2 -2.88313 1.86025 -15.5338 7.824 6.22545 -11.6827
43 15 1 -6.9633 1.25305 -14.7541 4.24494 23.2711 7.30238
44 15 2 -6.96199 2.29228 -14.6665 3.86924 -9.1604 -2.47617
463 155 1 -0.515756 3.02183 -13.2095 2.02557 7.28655 12.1851
464 155 2 -0.509257 2.2524 -13.8528 1.99256 -7.21095 -11.7767
248 83 2 -2.77426 6.38697 -11.1284 4.23633 9.13113 -0.346036
339 113 2 -4.67809 1.12035 -15.0757 12.5231 14.9848 18.4416
141 47 2 -6.54607 4.17425 -16.0623 -11.2133 2.03922 -4.27243
648 216 2 -3.01742 1.97999 -11.057 -2.83132 4.41787 8.9864
647 216 2 -4.54365 1.99743 -10.453 -3.0812 3.5147 5.42308
646 216 1 -3.62363 2.44556 -10.349 -0.47234 -20.6352 -11.5086
645 215 2 -3.38592 3.97485 -10.4982 2.23033 -16.1409 -4.51011
644 215 2 -3.46304 5.41043 -9.74929 -1.60446 0.725773 -3.1381
643 215 1 -3.05776 4.94533 -10.5806 3.21515 19.069 14.2359
638 213 2 -7.29906 7.16751 -10.7806 10.4516 -1.85332 0.440233
227 76 2 -1.78282 5.63988 -15.8401 0.899328 3.78601 0.815632
337 113 1 -3.95214 1.65535 -14.5452 -26.9556 -5.62605 -3.46034
338 113 2 -4.30675 2.5883 -14.2816 0.65551 -8.13173 -1.96976
396 132 2 -1.09731 0.698041 -15.6042 -0.273752 -18.7861 -6.90394
81 27 2 5.03615 1.37125 -11.749 4.66932 3.39171 9.99451
79 27 1 5.81761 0.734265 -11.506 6.11603 -2.60323 -20.9517
80 27 2 5.85979 0.436928 -10.5296 -10.3833 9.50952 10.1923
436 146 1 5.58701 0.029486 -15.8308 9.72001 -1.10097 -29.3219
35 12 2 6.73982 4.53491 -11.5561 -3.59703 0.252685 -3.13487
438 146 2 6.41202 0.561934 -15.5251 5.31779 2.46607 17.6707
34 12 1 6.49844 5.01566 -12.4395 -10.4566 12.1339 20.695
36 12 2 6.12457 5.94893 -12.1037 13.8205 -20.4914 -11.2108
318 106 2 0.520054 1.90961 -10.5782 -11.6108 11.1404 9.50029
455 152 2 2.19237 0.899938 -14.206 16.2224 8.71931 -3.19932
317 106 2 1.65899 0.889143 -10.9489 -1.74527 9.94017 -18.6055
316 106 1 0.977104 1.56042 -11.394 10.845 -19.3628 12.5314
624 208 2 2.32358 5.73743 -11.3619 0.184214 3.24741 -2.5996
456 152 2 1.44981 0.0491668 -12.992 0.379788 10.5564 -18.8898
454 152 1 1.41864 0.265566 -14.0076 -18.1025 -19.862 17.078
241 81 1 4.34022 2.98743 -12.3148 28.2709 22.5748 -23.3704
243 81 2 5.12156 3.62041 -12.6698 -31.9259 -19.0322 21.8458
242 81 2 3.55019 3.57593 -11.9565 11.6381 -0.773981 -0.356734
120 40 2 0.906551 5.02484 -14.5231 -19.6695 -9.55501 11.9395
626 209 2 1.57411 7.19468 -10.5272 -0.317104 11.746 4.76927
625 209 1 1.51587 7.08817 -11.5346 -2.68948 -15.3393 -4.34644
246 82 2 4.50991 1.32015 -14.8592 -6.13917 -12.0676 -5.84934
119 40 2 1.79992 5.85517 -13.3003 -6.83557 -4.74531 -0.268212
551 184 2 1.9653 5.03995 -16.1533 4.16383 -5.20095 -7.21679
118 40 1 1.75439 5.47394 -14.2482 25.7372 11.6213 -13.5305
245 82 2 3.85396 2.39092 -13.8158 -13.3488 -17.5392 -8.06296
244 82 1 3.60783 1.72239 -14.5906 14.5717 23.6662 10.4309
145 49 1 2.82676 0.0358569 -10.2812 -1.15816 19.7034 20.9824
623 208 2 3.37104 4.89525 -10.3361 -0.380508 -1.09633 -4.64914
622 208 1 2.82834 4.85316 -11.217 3.18484 -7.55674 12.636
538 180 1 6.64481 3.8129 -9.7954 20.5214 -12.0707 -18.1506
98 33 2 0.378737 5.11642 -10.2403 4.48047 -0.880903 2.43303
200 67 2 3.48429 6.83033 -15.7815 -4.39363 -5.26277 14.9431
534 178 2 -4.43678 -3.67504 -8.83296 -7.80685 6.87224 -8.02694
532 178 1 -5.30027 -3.08133 -8.90909 -10.7662 -32.1728 -0.865987
82 28 1 -3.04797 -4.47035 -9.31362 -5.11775 2.09515 13.4173
84 28 2 -2.62104 -5.3547 -9.02165 5.29272 -7.30416 8.61867
533 178 2 -5.04815 -2.13414 -8.72515 11.0142 32.1371 9.83825
413 138 2 -0.169086 -1.21562 -6.3566 -6.73342 0.135181 7.26879
479 160 2 -6.64216 -6.49448 -9.63329 28.716 8.94027 -1.59176
610 204 1 -4.04819 -1.04306 -5.55973 -15.9894 -1.23881 14.1901
612 204 2 -4.0356 -0.467195 -6.40008 11.5261 -6.38572 -4.08278
611 204 2 -3.30361 -1.73935 -5.44175 0.861824 8.87849 -11.5649
153 51 2 -7.15375 -5.75877 -6.89811 10.451 3.45781 -15.2406
151 51 1 -7.13099 -6.22146 -5.9959 -13.0324 5.79913 4.19038
122 41 2 -0.631786 -4.09123 -7.48889 8.98538 11.2167 -0.641728
350 117 2 -3.94971 -6.23908 -6.0938 1.60395 -8.51165 1.64015
349 117 1 -3.6127 -7.18864 -5.87145 -6.72574 -9.58649 -13.3196
10 4 1 -4.54607 -4.28707 -6.23311 -9.8801 -10.027 9.90085
11 4 2 -5.40125 -4.15892 -6.77488 9.39475 3.7354 -3.19694
12 4 2 -4.86977 -4.4715 -5.27318 5.97415 3.40495 -0.509067
208 70 1 -7.03509 -1.89551 -6.09231 -16.0187 6.12514 -12.4475
570 190 2 -6.71656 -4.27416 -8.47192 3.11804 -0.246749 -9.00153
209 70 2 -6.17368 -1.37671 -6.08516 25.1375 -3.12235 1.47183
306 102 2 -2.20608 -4.69229 -5.93138 -2.40335 -5.56381 8.58564
305 102 2 -1.03397 -5.34157 -4.87904 -4.62369 -6.91716 1.70316
304 102 1 -1.69475 -4.57351 -5.04982 -4.98618 14.1835 -7.19078
503 168 2 -1.38288 -2.92421 -5.13079 -1.8745 -23.843 1.71796
377 126 2 -1.73272 -7.02673 -9.5408 1.86567 11.9868 15.909
376 126 1 -1.56709 -6.60116 -8.59705 -5.64221 -25.9103 -8.30411
523 175 1 -4.96439 -0.257849 -8.51383 -24.137 13.8636 1.48152
504 168 2 -1.3015 -1.66082 -4.0781 4.51076 9.35949 6.19789
502 168 1 -1.18013 -1.93458 -5.05702 1.64529 9.12732 -17.7658
87 29 2 -7.17952 -0.0533697 -6.31941 -4.7054 -19.1034 7.22308
370 124 1 -5.93884 -4.61817 -3.72542 -4.43709 -5.64873 -7.27808
372 124 2 -6.52111 -5.01509 -4.45941 5.92154 -4.88504 -18.2142
598 200 1 -0.745003 -6.97744 -4.00543 -4.46047 1.46967 -9.49692
412 138 1 0.0532321 -0.815993 -7.2782 9.61917 10.0343 -3.20211
414 138 2 0.985373 -0.390133 -7.29749 -1.30222 -6.57867 0.565325
569 190 2 6.32354 -4.74403 -8.86504 -5.14833 -1.76801 0.945059
123 41 2 0.204178 -2.58039 -7.4895 -7.49557 -14.3127 0.811979
152 51 2 6.47813 -6.43204 -5.90923 0.206064 -4.27315 12.6803
121 41 1 0.281752 -3.6186 -7.38849 -2.48831 -1.73997 -12.4413
210 70 2 7.23929 -1.93431 -5.12713 -3.61391 -7.81168 13.4947
568 190 1 7.24139 -5.07225 -8.55443 -1.2703 2.8379 5.21947
472 158 1 1.96263 -7.20131 -6.12246 -26.8338 3.55594 19.4883
473 158 2 1.42654 -6.43192 -5.63641 25.6196 -6.86053 -9.57012
88 30 1 1.95494 -4.68601 -9.44908 -1.29772 8.53491 11.8289
635 212 2 4.21533 -3.9666 -5.84991 3.7275 -4.01554 2.43709
634 212 1 4.55464 -4.93395 -5.85018 -3.78255 7.53785 9.85517
258 86 2 3.71102 -2.04685 -7.23421 16.9951 5.31389 -15.3491
256 86 1 2.83029 -2.43521 -6.92676 -29.8639 -14.9598 0.354574
257 86 2 2.27025 -2.93896 -7.6456 15.8397 13.543 13.0665
33 11 2 5.88804 -0.491288 -8.66171 -17.5279 4.9706 -13.0368
636 212 2 3.99844 -5.4537 -5.18041 0.00623123 -7.09064 5.36489
379 127 1 4.32659 -4.46352 -8.34511 -22.122 21.7996 -52.3779
380 127 2 4.32677 -4.89196 -7.42592 2.33987 -10.5585 22.618
198 66 2 5.133 -2.91234 -8.21432 0.396229 5.94181 3.53315
196 66 1 5.41538 -1.96709 -7.88168 21.1959 -23.3883 7.65677
197 66 2 6.30294 -2.07579 -7.33087 -16.557 1.16031 -3.81872
490 164 1 2.40834 -1.72345 -4.46767 -5.40593 -6.01604 10.3756
555 185 2 1.09865 -4.69261 -6.06695 -4.10999 14.4538 16.7959
553 185 1 1.19259 -4.93543 -5.06064 5.83617 -18.8022 -18.1504
554 185 2 1.07289 -4.17833 -4.40907 -3.20333 14.2461 1.96195
491 164 2 2.46694 -1.99964 -5.4629 1.15133 3.52568 -4.66954
381 127 2 3.34162 -4.46662 -8.76268 32.0894 -12.2845 10.9405
89 30 2 1.29015 -4.42781 -8.70748 -2.56541 -0.845938 0.345694
492 164 2 2.93093 -2.47392 -3.95121 -3.06723 13.8159 1.07724
448 150 1 7.21991 -2.18363 -3.24567 8.36681 -7.10242 15.1406
556 186 1 -0.860105 6.27397 -6.63193 -4.70186 -7.75581 9.38677
558 186 2 -1.51523 6.86353 -6.0813 5.48143 -12.8052 1.61112
557 186 2 -0.865134 5.27369 -6.36273 -3.84071 19.879 0.288373
378 126 2 -1.48552 7.21112 -7.9049 7.0292 18.7314 -14.298
85 29 1 -7.24023 0.948348 -6.26785 -9.89605 3.50812 -7.33012
86 29 2 -6.6272 1.2895 -6.98254 11.6953 15.3322 -7.78346
260 87 2 -4.04615 6.42289 -4.14612 5.88359 12.902 -2.68132
116 39 2 -5.46983 3.48319 -4.95909 18.9372 -19.9307 9.95418
351 117 2 -3.9596 6.74317 -6.58655 4.03489 15.6862 6.69616
361 121 1 -1.50792 1.43342 -8.10609 11.1995 -3.1661 1.94442
362 121 2 -0.859738 0.718312 -7.71085 -15.9675 -1.78185 -14.4307
363 121 2 -1.83844 1.18915 -9.05163 6.39932 -1.98059 10.3016
525 175 2 -4.86792 0.595131 -7.92828 20.8421 -10.4029 3.39997
524 175 2 -5.53479 0.190505 -9.23998 2.40661 -10.5418 -12.5065
365 122 2 -4.90046 6.79451 -9.2295 -5.40357 -8.84452 12.181
299 100 2 -5.43242 3.45618 -7.55827 -3.86776 -1.74636 -3.2617
300 100 2 -6.55924 4.46386 -6.96048 -3.48155 2.19627 12.8384
366 122 2 -5.16932 5.24088 -8.47309 -2.97112 13.2188 -1.71444
364 122 1 -4.54457 6.06407 -8.55682 12.3098 -7.97719 0.0840578
39 13 2 -2.322 2.70311 -4.17724 -6.58804 7.15845 -3.74425
298 100 1 -6.24421 4.02721 -7.82514 13.2168 -7.47935 -1.75683
369 123 2 -3.28147 1.93191 -7.79724 -28.9638 -9.53518 21.6631
368 123 2 -3.69013 1.91872 -6.1997 -13.3897 -0.887783 -8.05235
99 33 2 -1.15226 5.05484 -9.73012 -11.5632 -1.45616 -0.0751642
367 123 1 -4.10618 1.76798 -7.14104 37.1833 21.9641 -1.66934
97 33 1 -0.193662 5.04733 -9.40323 5.72225 -4.1766 -4.19675
117 39 2 -5.5815 5.1378 -4.70166 -4.87811 -15.0723 4.55838
115 39 1 -6.0584 4.27992 -5.03536 -12.5371 35.1978 -9.97958
37 13 1 -3.34999 2.70871 -4.27622 19.3611 -9.06654 -4.55924
259 87 1 -4.61829 6.10458 -3.36405 -5.15471 -13.3895 -7.30664
354 118 2 -1.48984 0.284004 -3.71899 3.34316 -14.296 26.5584
38 13 2 -3.64096 2.38797 -3.34947 -17.4474 0.751067 5.46749
418 140 1 -0.528254 2.63425 -4.1003 -25.808 1.63004 -20.2767
420 140 2 -0.604884 3.02429 -5.06067 12.1073 -2.0236 15.4657
147 49 2 3.0963 0.560668 -9.40131 -12.1978 -19.4588 -21.9847
237 79 2 3.98048 6.10387 -4.05976 6.23645 -7.44327 5.38405
235 79 1 4.0099 7.1052 -4.21931 -23.6397 3.80477 -18.5731
236 79 2 3.27988 7.23556 -4.95702 11.009 1.14148 6.17845
561 187 2 0.0214201 2.56357 -7.07237 -3.90314 21.0737 -6.83559
559 187 1 0.259537 3.52048 -6.74982 -4.81951 -18.2905 8.27932
560 187 2 0.124789 4.23965 -7.47052 -0.259487 -3.65262 -12.2192
474 158 2 1.21034 6.73437 -6.32409 6.31204 -2.22137 -9.09125
283 95 1 3.13902 0.986297 -7.80674 -4.58068 2.58737 6.81106
284 95 2 3.0511 1.87494 -7.29923 8.50191 -0.174011 -3.98007
15 5 2 4.54656 5.74366 -8.35447 2.89492 6.51486 -6.47013
32 11 2 5.7491 0.700174 -7.70666 -3.37648 10.6122 -28.0193
31 11 1 5.547 0.492962 -8.71353 27.5255 -6.89562 43.2469
602 201 2 2.31926 0.986395 -4.81178 4.30618 -8.45148 13.8005
539 180 2 7.23486 3.91608 -8.95064 2.05018 5.02283 1.42517
285 95 2 4.11759 0.775856 -8.10537 -8.37915 6.74865 2.19942
540 180 2 5.67792 3.66636 -9.52701 -11.9842 8.96561 2.90711
601 201 1 2.15095 1.30042 -3.8496 -9.0295 10.7688 -5.18658
229 77 1 3.47847 3.89135 -3.80525 8.88182 17.0444 -19.284
68 23 2 3.15338 3.83116 -5.51367 6.25139 4.93829 6.38774
67 23 1 2.9581 3.69404 -6.51302 15.7557 -11.406 -3.5148
69 23 2 1.96709 3.47268 -6.55332 -16.9595 7.53013 -4.21862
13 5 1 4.37624 4.85091 -8.80417 -13.2574 -2.70771 14.3331
14 5 2 4.08203 4.25606 -8.02128 -7.37332 -2.70117 -1.75824
600 200 2 0.0716524 7.05409 -4.17433 4.07987 -5.7061 5.23188
419 140 2 0.27798 2.03389 -4.02135 22.3648 -4.42821 -0.59261
231 77 2 3.02177 3.01936 -3.57176 -12.2099 -16.1983 -3.6253
531 177 2 6.30932 1.64574 -5.26723 -7.01209 20.937 2.89718
530 177 2 5.10743 2.7762 -4.44328 1.98471 22.4331 -17.7133
529 177 1 5.63207 1.9214 -4.51843 -0.0597708 -38.7736 23.2295
180 60 2 -4.31246 -3.84247 -2.81135 21.1636 -13.6438 4.98453
371 124 2 -6.59215 -4.83557 -2.98088 0.204802 5.52903 20.1407
280 94 1 -6.07455 -2.93475 -0.355373 11.6049 -4.96548 12.6933
179 60 2 -2.65646 -4.21639 -3.06674 -2.44541 0.816506 -8.10358
282 94 2 -6.39689 -3.01823 0.634091 2.1749 3.81571 -6.87316
501 167 2 -1.82857 -5.06773 -1.4827 5.2008 8.48831 -1.72138
301 101 1 -1.67197 -3.1645 0.48626 10.9195 -10.2543 10.8451
94 32 1 -3.99855 -4.90269 0.510692 -14.6699 0.420769 -0.295752
499 167 1 -0.828875 -5.19261 -1.27995 -10.5281 -3.04438 -6.63437
500 167 2 -0.812308 -5.79283 -0.441576 6.31567 -9.4242 4.26976
95 32 2 -3.5039 -4.024 0.706677 8.29053 -2.09268 -6.13658
96 32 2 -4.72238 -4.67564 -0.192796 10.6705 3.12554 6.69154
450 150 2 -6.40386 -2.1093 -2.96381 -6.28081 3.71326 -6.17281
303 101 2 -1.06255 -3.97604 0.245578 -12.3548 21.3185 -0.0562261
178 60 1 -3.39611 -4.08742 -2.37983 -17.1023 3.51761 -4.07489
93 31 2 -6.25714 -5.52282 3.01551 -3.42498 7.55078 16.0159
91 31 1 -5.88578 -6.05636 2.23875 0.45753 -19.5864 -19.976
158 53 2 -2.48501 -5.94922 2.54421 6.40733 7.68393 0.721878
599 200 2 -0.652065 -6.46768 -3.13535 1.36177 2.8167 11.6049
548 183 2 -4.78662 -1.21296 -2.96328 5.27707 -5.13098 -2.30903
549 183 2 -4.66003 -1.71838 -1.29019 2.28875 6.84569 -14.584
374 125 2 -3.63647 -6.53338 -0.388781 2.25028 11.0593 6.56848
302 101 2 -1.19915 -2.51379 1.11839 -1.75136 -5.98748 -6.83031
92 31 2 -5.02368 -5.68539 1.82077 0.696579 8.74657 -0.705706
281 94 2 -6.85216 -2.61286 -0.897155 -13.9613 2.84465 -5.65014
268 90 1 -7.15469 -3.04694 2.14075 0.0117443 -10.8537 8.42445
269 90 2 -6.58187 -3.51462 2.85653 -6.98825 8.41477 -5.41503
592 198 1 -0.842817 -6.76519 0.868921 -49.2022 -26.6459 -2.20806
594 198 2 -0.080408 -6.74488 1.50931 35.6485 3.78129 19.7339
353 118 2 -1.45474 -0.202659 -2.04578 -17.4901 11.7934 14.085
547 183 1 -4.48454 -0.997425 -2.02058 -5.21175 2.12881 13.0648
352 118 1 -1.13139 -0.36639 -2.98326 11.1346 8.38139 -24.1732
54 18 2 -7.15509 -6.15806 0.739155 2.55141 -3.29454 5.38823
255 85 2 3.62143 -6.33658 -3.07387 0.247069 -0.0100078 -6.01365
506 169 2 6.77782 -5.09477 -1.15763 -8.9049 4.34193 -12.8435
449 150 2 6.93764 -3.08265 -2.79474 -10.4218 9.13239 -10.3942
20 7 2 0.390636 -0.879711 -1.99425 1.91768 -1.2253 10.166
507 169 2 5.48576 -4.79161 -2.18823 15.0058 6.581 3.45696
19 7 1 1.36815 -1.12985 -1.77092 -5.23816 -19.0016 -42.6906
270 90 2 6.46827 -3.14453 2.43656 2.60412 2.31195 -1.10494
505 169 1 6.45589 -4.49659 -1.96168 -7.04798 -12.8519 6.2812
253 85 1 3.33271 -5.74854 -2.27755 4.38147 -49.1803 42.0382
254 85 2 3.31108 -6.47399 -1.49069 -8.5268 33.6801 -23.4532
18 6 2 3.42807 -2.59083 -2.01759 3.74063 4.02456 3.7173
17 6 2 3.28705 -4.21718 -2.39025 9.06385 0.845958 -12.1639
16 6 1 3.54127 -3.26732 -2.76198 -4.7583 0.304263 7.95472
278 93 2 5.96459 -0.337615 -2.6522 -4.10653 1.0369 -1.05338
6 2 2 4.73883 -1.88582 3.15852 5.27298 11.897 -1.45699
4 2 1 4.56915 -2.89024 3.13925 5.38843 -2.17087 -1.61431
5 2 2 3.88362 -3.03217 2.40944 -7.39575 -4.9779 -5.3928
496 166 1 5.1369 -0.167524 2.81466 3.91571 -2.804 -11.5126
52 18 1 7.05702 -6.43239 -0.16507 0.501825 16.9487 1.52782
311 104 2 1.53921 -4.27582 -0.244636 -0.917342 1.5033 20.3355
312 104 2 1.82688 -2.71972 -0.158703 -4.08665 6.47666 11.4485
166 56 1 1.25533 -7.0871 2.60955 5.60255 0.628725 0.222719
168 56 2 1.98356 -6.58875 3.1321 -5.17599 2.08539 0.348971
497 166 2 6.15929 -0.0451801 2.62645 -25.3627 3.56401 -2.0565
310 104 1 1.72354 -3.53311 0.448185 2.35224 -5.56711 -32.9688
21 7 2 1.61619 -1.49806 -2.70976 9.31016 2.30777 11.0034
287 96 2 -3.32622 4.66823 -2.38608 -7.30216 3.38148 -5.17998
150 50 2 -5.40122 6.85751 2.28259 -10.8142 20.8186 -1.67133
286 96 1 -2.45037 4.42144 -1.93778 -2.15992 -4.81385 7.51675
288 96 2 -1.77616 5.16668 -2.08633 9.9667 5.23712 0.328512
593 198 2 -1.36303 6.94827 1.1239 13.2174 22.6132 -20.0229
53 18 2 -7.15233 7.27197 -0.450907 -4.05935 -10.7487 -2.68191
261 87 2 -4.55184 6.69518 -2.53958 12.405 7.3862 0.349994
149 50 2 -4.65782 5.63456 1.45043 3.20761 -7.6227 -15.6494
373 125 1 -3.92962 7.11096 -0.573421 -14.2896 -17.7652 -4.69996
232 78 1 -4.63696 1.79213 -1.89594 16.4759 2.04773 -24.4894
233 78 2 -5.34494 2.12605 -1.23799 -5.94023 -7.13322 -0.24779
375 125 2 -3.54006 6.48079 0.139783 9.5032 5.14566 -6.74375
234 78 2 -4.56307 0.770135 -2.03103 -7.1694 -0.466394 12.1694
340 114 1 -6.45679 5.92759 -1.33473 2.84391 15.0743 15.4575
342 114 2 -5.66326 6.54475 -1.11759 3.50646 -7.14445 7.23716
573 191 2 -5.81732 1.98527 1.66743 14.8793 6.78208 -11.3449
341 114 2 -6.50188 5.91753 -2.33901 -2.63746 -5.1297 -20.2229
572 191 2 -5.4691 0.948103 2.95681 4.47862 -4.25019 -1.85846
571 191 1 -6.18145 1.43418 2.42622 -22.1753 -8.32879 16.3693
274 92 1 -4.28972 2.62889 0.642346 3.1846 20.6978 -1.23504
275 92 2 -3.64819 2.45353 -0.144277 -6.48619 -3.49628 2.96768
276 92 2 -5.11751 3.15423 0.227572 13.9054 -15.9987 12.9505
462 154 2 -6.50845 4.32038 -0.973625 7.47447 9.77934 4.98872
320 107 2 -2.0381 4.62293 0.660798 0.282695 7.61089 2.63652
319 107 1 -2.23457 5.48364 1.19091 -3.92136 -6.5468 23.5649
460 154 1 -6.4693 3.44582 -0.428061 -27.9865 -5.12192 -9.77119
565 189 1 -2.1869 1.7179 2.20568 -4.34017 22.7983 -9.5477
567 189 2 -2.46178 1.36182 3.11524 -4.28486 -7.96278 1.54243
566 189 2 -2.97142 2.1864 1.69166 9.90471 -15.8848 10.7103
321 107 2 -2.27237 5.27868 2.21377 0.497796 1.63372 -23.9003
329 110 2 -1.71227 3.06947 -1.58576 9.14582 -12.3938 8.58143
328 110 1 -1.12466 2.20191 -1.454 -2.81054 11.3723 -15.6734
330 110 2 -0.702825 2.11017 -2.39441 -5.01307 4.82941 9.81998
443 148 2 -0.422733 2.50128 2.63561 4.94507 -5.49727 -4.44344
148 50 1 -4.99381 5.93261 2.34308 4.86305 -14.5752 18.711
603 201 2 2.2852 0.579007 -3.13474 3.63449 -1.31511 -10.3059
230 77 2 3.75227 4.1614 -2.84028 -0.822443 -3.97419 -0.326895
57 19 2 4.45554 5.02299 2.21187 4.80973 -6.19074 4.21266
56 19 2 5.0355 3.90005 1.06259 -12.4275 17.4856 6.80387
55 19 1 4.37364 4.67539 1.25845 7.8146 -10.6558 -6.11058
277 93 1 5.36143 0.388083 -2.2521 3.26487 0.913249 -12.7261
398 133 2 2.5281 7.21126 0.755418 -4.2505 -2.72683 4.05863
397 133 1 2.74109 6.98915 -0.214316 22.3494 -14.9333 -14.8187
498 166 2 4.47696 0.136953 2.03767 25.7491 -3.46806 14.4142
399 133 2 3.39891 6.17746 -0.272308 -17.089 17.1499 9.22229
182 61 2 3.53059 0.506391 -0.205503 -8.60839 2.98499 -2.12009
535 179 1 0.474091 5.57587 -1.72673 12.4535 -29.74 13.5507
446 149 2 1.45501 0.274052 -1.0635 -12.4337 -17.3886 -11.1248
279 93 2 5.30961 1.18571 -2.92845 3.76145 -17.3623 1.41993
461 154 2 7.13098 3.16828 -0.428555 12.1292 -7.80887 6.53474
537 179 2 0.945884 4.82215 -1.16637 -17.1904 16.1632 -12.9126
536 179 2 0.98564 6.40321 -1.47083 4.17021 13.7698 4.1813
30 10 2 5.34831 1.54215 0.57264 -7.08024 -2.25255 7.0286
333 111 2 3.16818 3.8458 -0.563862 -12.9904 2.53549 7.31148
297 99 2 2.25265 3.70847 1.07346 8.59583 -0.772662 21.2454
445 149 1 1.14625 1.07091 -0.513616 -0.70697 46.1838 31.4455
447 149 2 0.25394 1.55513 -0.74456 0.811996 -16.1322 -8.06402
167 56 2 0.822084 6.80844 3.20104 1.34009 -0.171814 3.73024
331 111 1 3.78546 3.55643 -1.3188 6.5714 4.88888 -8.42655
296 99 2 1.08876 2.95149 0.151667 6.84644 0.655323 4.90107
332 111 2 4.34126 2.76987 -0.968234 10.9413 0.77435 3.53453
295 99 1 1.67047 3.79118 0.264137 -19.058 6.27706 -22.8278
28 10 1 5.62687 2.01016 -0.282276 25.4062 12.577 8.37788
29 10 2 5.76518 1.26165 -0.985001 -5.45801 1.0118 -6.96002
181 61 1 3.57146 0.68498 0.79596 7.25011 -10.8935 25.5415
183 61 2 2.65485 0.906844 1.20512 -1.46176 0.513004 -14.8877
442 148 1 0.554321 2.77218 2.81502 -0.326619 -1.01499 5.05038
485 162 2 -5.07671 -1.70832 4.20527 2.04099 18.2094 4.35547
486 162 2 -6.35466 -1.15767 4.9888 7.22555 12.3303 -3.44565
484 162 1 -5.46395 -0.803593 4.58481 -16.0127 -24.3689 3.90241
326 109 2 -3.95072 -3.86097 3.51707 -2.80328 9.14444 2.86314
325 109 1 -4.35052 -3.10874 4.10348 1.73672 -32.6065 -9.53112
157 53 1 -2.67336 -5.41858 3.39891 -10.7151 10.776 0.022734
192 64 2 -3.43958 -5.88831 5.0408 -7.85288 5.55587 5.82542
50 17 2 -6.92543 -5.33102 5.47432 2.04028 9.69853 -15.7243
159 53 2 -1.96877 -4.65035 3.58816 -4.72981 -22.7188 -5.43121
51 17 2 -5.85443 -4.25834 4.71589 -9.56736 -1.22335 1.98721
327 109 2 -3.70199 -3.01006 4.90281 -2.02988 12.0106 1.66954
402 134 2 -4.06964 -4.18116 7.92817 -30.6084 1.71295 -0.788321
49 17 1 -6.73039 -4.79203 4.59427 13.0182 -0.15087 9.94491
579 193 2 -1.78497 -4.94796 7.60228 3.34802 -0.838542 7.7164
400 134 1 -5.11336 -4.0282 7.76789 23.563 -2.37901 -5.42333
401 134 2 -5.56933 -4.94232 7.85113 1.94011 4.01027 6.70555
155 52 2 -5.06011 -7.16404 8.77475 2.20857 12.0271 10.0363
154 52 1 -4.93585 -6.36297 9.4185 -11.2691 -28.2248 -1.9696
606 202 2 -7.01587 -0.567178 8.16544 -10.2198 -3.33557 -12.4844
240 80 2 -0.0207651 -6.56207 8.45709 -5.56285 -4.82574 0.364667
213 71 2 -5.79247 -2.65697 8.49415 -2.01985 15.7728 11.6616
113 38 2 -6.70684 -7.02049 5.78278 3.30096 2.96396 -3.79969
493 165 1 -2.61511 -2.24862 5.93993 -6.58257 -23.4865 -19.9185
494 165 2 -2.66325 -2.23978 6.94249 3.67068 7.61642 17.3959
495 165 2 -2.38981 -1.3451 5.5144 0.127311 13.2454 3.64216
577 193 1 -2.55575 -4.63041 8.20088 -3.98321 8.43735 -6.27933
578 193 2 -2.27765 -4.49032 9.17517 0.569966 -0.731448 -3.99283
112 38 1 -6.99028 -6.51616 6.64179 2.19179 -26.0027 -2.80801
101 34 2 -1.70995 -3.30481 5.06731 2.36996 18.0564 -4.44253
100 34 1 -1.0014 -3.83436 4.53924 6.06021 -14.5205 32.8399
190 64 1 -3.44934 -6.48121 5.88562 22.7929 -23.8777 -5.18016
191 64 2 -3.94889 -6.24476 6.73679 -8.18851 16.779 -2.04768
314 105 2 -1.72208 -6.21506 6.21472 2.78253 -10.2815 -2.90347
313 105 1 -0.726772 -6.03514 6.4166 -11.069 20.1033 8.89917
315 105 2 -0.160302 -6.89556 6.35875 2.09144 -6.11101 -13.2235
238 80 1 -0.465118 -6.29809 9.34039 4.5658 11.2584 11.5082
545 182 2 -3.9317 -0.228954 4.88538 6.36356 8.13892 -8.8257
239 80 2 -1.16707 -6.96235 9.67494 1.91718 -9.49113 -4.81903
102 34 2 -0.769766 -4.53741 5.27712 9.12692 4.83162 -21.7683
211 71 1 -5.98285 -1.84172 9.1391 -3.13338 -16.3791 -22.5741
596 199 2 -0.0294901 -4.63061 9.23936 10.4798 -9.05445 4.23465
615 205 2 1.04347 -2.66486 4.66691 9.62499 -2.73861 6.77223
26 9 2 0.0070431 -2.56207 8.02376 6.33087 0.915554 -2.90439
605 202 2 6.57732 -0.909996 6.82887 9.72123 -2.09488 -1.69772
25 9 1 0.0197763 -1.88421 7.238 -13.1156 7.57178 9.20524
604 202 1 6.82278 -0.214483 7.54647 10.5388 -3.04206 9.46592
27 9 2 0.688447 -2.17983 6.53875 13.661 -7.51733 -8.41251
613 205 1 1.89755 -2.7295 5.24495 -20.5711 1.93893 -10.4875
575 192 2 6.63185 -2.96256 6.0227 14.1181 29.9997 -15.3235
576 192 2 5.7876 -2.05666 5.04916 4.67287 5.13394 -8.88785
291 97 2 3.76736 -6.09884 8.53 17.3728 14.8452 5.20267
289 97 1 3.01956 -6.51179 8.0147 -22.4488 -14.4759 -7.2893
513 171 2 6.38684 -5.34 7.4696 -16.7653 -2.45353 -10.3003
511 171 1 5.47858 -4.84981 7.3423 20.3311 3.27277 11.8453
512 171 2 5.50733 -4.13922 8.08191 -3.2959 3.38829 1.60609
527 176 2 3.73996 -4.75765 3.58646 9.25598 7.09724 -1.94804
526 176 1 3.14059 -5.13556 4.30864 -9.61329 -11.9969 13.5144
528 176 2 3.68625 -5.63086 5.02397 0.418819 1.40809 -6.14513
574 192 1 6.6883 -2.03267 5.52583 -20.4762 -40.296 21.8844
614 205 2 2.29778 -3.65492 5.05843 5.83143 -2.15705 -1.98574
404 135 2 6.80951 -2.38276 9.54043 7.53039 -1.81126 -2.44319
403 135 1 6.03753 -3.05179 9.51157 -15.1751 -0.731288 4.78656
66 22 2 2.78863 -0.777505 4.45186 -3.00993 3.7412 9.2505
290 97 2 2.58758 -5.85354 7.3655 5.67521 -0.689978 3.51275
439 147 1 6.20633 -7.29187 9.29869 -21.1461 -10.8022 -14.9705
65 22 2 4.26874 -0.158236 4.94129 -34.0651 7.29285 -7.12612
597 199 2 1.2882 -3.59015 9.71699 -9.71794 -6.68779 -0.80162
595 199 1 0.41276 -3.70735 9.17575 4.8975 14.7557 0.960883
641 214 2 1.53899 -0.0219285 9.72829 -8.23108 24.8646 -21.4143
77 26 2 0.288224 -0.217615 7.37315 10.2021 5.52397 10.9834
389 130 2 -6.36014 1.8635 5.29991 -3.11365 -1.68535 -1.12885
562 188 1 -3.31591 5.73409 4.55657 16.8866 4.36719 21.7958
564 188 2 -4.06694 5.92409 3.8857 -3.19776 2.75253 -9.25923
546 182 2 -3.10388 1.22618 5.01495 -1.71922 11.7943 6.01635
544 182 1 -3.00759 0.24799 4.7697 -4.73183 -10.021 2.68308
390 130 2 -5.13151 2.75782 5.9196 2.59492 1.96621 0.91682
388 130 1 -6.13305 2.55281 6.01396 3.95211 -4.18924 -2.17716
111 37 2 -6.11302 5.60557 4.01795 -6.20859 9.37122 -6.60464
591 197 2 -3.50148 3.88685 5.03668 6.90138 17.8454 -4.19201
589 197 1 -3.39233 3.04678 5.59095 5.0931 -25.6983 20.9554
110 37 2 -5.46314 5.68206 5.4676 -0.905116 4.41686 9.5793
109 37 1 -6.10221 6.18697 4.86071 -3.71973 -7.95042 3.16663
563 188 2 -3.19137 6.58162 5.17135 -7.46794 -14.1651 -15.2802
582 194 2 -5.4638 5.11316 8.23507 16.5863 -13.1097 6.49306
581 194 2 -7.15907 5.29765 8.00547 26.0474 -0.873541 -4.7306
580 194 1 -6.21204 5.738 7.98697 -40.8911 16.7865 -4.53185
590 197 2 -2.56349 3.05537 6.23417 -13.0139 3.64488 -14.783
23 8 2 -1.67327 4.81558 4.84619 10.7489 0.307108 -5.69215
22 8 1 -0.752394 4.34759 4.79633 -11.5689 10.7351 -9.10844
161 54 2 -3.91938 3.73899 8.59209 5.88149 2.67157 0.707007
160 54 1 -3.78548 4.71174 8.89704 -6.98399 -12.2206 27.4554
510 170 2 -0.701658 3.04662 7.93813 -9.73829 14.8384 -18.6877
24 8 2 -0.734654 3.65056 5.54763 3.19513 -8.14606 10.0591
509 170 2 -0.422095 1.84862 7.0544 5.19991 -7.85313 -12.4305
508 170 1 -0.842722 2.77646 6.93473 -2.05626 -3.31633 27.4025