ITEM: TIMESTEP
7000
ITEM: NUMBER OF ATOMS
648
ITEM: BOX BOUNDS pp pp pp
-7.2506837741059957e+00 7.2506837741059957e+00
-7.2506837741059957e+00 7.2506837741059957e+00
-1.6112630609124651e+01 1.6112630609124651e+01
ITEM: ATOMS id mol type x y z fx fy fz
129 43 2 -1.28504 -2.83191 -12.7595 3.35956 8.18347 0.52408
26 9 2 -5.74002 -5.01565 -9.86125 3.65171 -14.3106 6.65104
25 9 1 -6.54922 -4.41734 -9.80975 3.5531 16.0915 -16.7396
27 9 2 -6.2802 -3.58128 -10.3279 -1.72614 1.63154 6.8278
128 43 2 -2.32891 -4.01281 -12.7023 -10.3928 -2.08582 6.17286
127 43 1 -1.60509 -3.56244 -12.1237 2.18373 5.93278 -7.31811
633 211 2 -4.33318 -3.43691 -13.0693 -4.68015 1.19197 0.717895
631 211 1 -3.81794 -4.18822 -13.5319 -3.49385 -2.89834 -3.09555
632 211 2 -4.40455 -4.60976 -14.2904 3.4684 4.34117 1.87743
136 46 1 -5.09128 -5.22419 -15.5958 2.07545 -10.6876 -17.5935
141 47 2 -6.46406 -2.34391 -12.5355 -7.80289 1.2919 -12.5359
23 8 2 -1.53446 -2.98482 -10.3038 7.06506 -6.57701 -7.73298
637 213 1 -1.2528 -0.181967 -11.3108 10.439 -15.2767 -5.95699
74 25 2 -2.80213 -2.97237 -14.7122 13.9468 0.287261 3.01469
75 25 2 -2.13301 -1.61191 -15.3122 7.9157 3.4116 0.551503
73 25 1 -1.90629 -2.47001 -14.8133 -18.83 -5.78319 -1.17751
139 47 1 -5.67087 -1.84188 -12.1474 16.2964 -23.3047 5.92357
140 47 2 -5.88171 -0.864498 -12.0519 -4.41435 12.7161 1.06379
539 180 2 -3.49434 -1.01317 -12.605 3.28985 13.3643 4.53136
538 180 1 -3.46267 -0.135164 -13.1359 -11.541 5.12032 -20.9732
543 181 2 -0.896248 -4.90853 -11.6274 7.69696 -4.80455 -6.57729
541 181 1 -0.421777 -5.8392 -11.6201 4.30273 10.9366 2.88165
542 181 2 -1.0919 -6.47262 -11.199 -4.51484 -6.76979 7.01911
639 213 2 -1.39909 -0.144003 -10.292 -2.20662 5.3936 0.720837
489 163 2 -5.47699 -6.22879 -12.4511 -6.98835 4.02346 1.69633
487 163 1 -6.17532 -6.94273 -12.2616 4.72728 20.7035 -5.1717
626 209 2 -2.98351 -6.18547 -15.8086 19.3156 7.04885 -0.404842
137 46 2 -5.99819 -5.73001 -15.651 -2.1336 6.02725 7.97766
389 130 2 -7.09852 -1.78918 -15.5068 13.9322 8.14584 -5.30702
625 209 1 -2.06356 -6.56459 -16.0882 -24.9296 -15.7494 7.27997
627 209 2 -1.21218 -6.09006 -15.7388 -8.52406 6.61685 9.16581
15 5 2 -0.482833 -4.5759 -14.1564 6.08693 1.63849 -4.82047
13 5 1 -0.0780513 -5.28117 -14.7743 -10.9049 -8.54663 -1.97901
200 67 2 1.8702 -3.08964 -14.1503 0.37476 -1.42661 -4.15278
433 145 1 6.8791 -2.88349 -13.9939 -0.672614 13.2296 1.57246
435 145 2 6.93586 -3.64352 -14.6611 4.01261 -7.74994 -4.16218
190 64 1 1.25576 -2.18687 -11.1034 4.9507 -4.11541 -3.69927
192 64 2 0.369991 -1.92194 -11.532 -0.500221 3.88511 0.719394
90 30 2 6.33541 -1.70818 -10.9934 8.61858 -6.31098 3.85388
515 172 2 4.9937 -3.68497 -11.5409 1.12727 -9.03521 -1.11388
160 54 1 3.52628 -4.3343 -15.9666 -6.5052 0.767404 -5.86666
516 172 2 6.33637 -4.00974 -10.5694 -8.00616 -4.18827 8.81453
514 172 1 5.4244 -3.52706 -10.6135 6.4727 12.5877 4.52079
201 67 2 1.08976 -1.99953 -15.1746 -2.20791 0.156272 -5.84509
199 67 1 1.71552 -2.11158 -14.3785 2.08354 4.43962 6.96617
89 30 2 5.27976 -0.643922 -11.3504 -6.73936 11.643 -5.48694
434 145 2 5.93141 -2.94976 -13.5822 4.74547 -5.20682 -1.91543
635 212 2 2.06424 -4.0134 -11.9291 -0.323098 -7.38466 -0.622649
636 212 2 1.47144 -5.55195 -12.2803 11.3068 10.3955 -4.76348
634 212 1 2.27353 -4.90362 -12.4022 -22.9172 5.23639 4.35799
292 98 1 6.93354 -6.30897 -15.5349 6.22951 -15.6016 3.48907
293 98 2 6.06335 -6.50794 -16.0413 -6.25564 5.68922 5.03455
294 98 2 7.15177 -7.18575 -15.0461 -1.10673 9.873 -1.36132
599 200 2 3.80524 -4.32841 -13.2786 -6.90581 -20.39 0.361555
600 200 2 5.42437 -5.04039 -13.2935 -24.3493 0.289957 0.864729
598 200 1 4.80589 -4.23977 -13.0831 27.8215 16.4034 -0.441588
282 94 2 2.95145 -1.42919 -11.7747 8.76657 -1.78672 6.07917
280 94 1 3.4951 -0.554302 -11.784 -7.8558 -12.58 -3.52977
162 54 2 3.82314 -5.31219 -15.875 3.09618 -2.84763 -0.0114388
142 48 1 4.27244 -7.02336 -15.9994 -13.2033 11.6337 19.894
191 64 2 1.36565 -1.61325 -10.2434 -3.02689 -3.36516 1.32944
88 30 1 6.30361 -0.732209 -11.2771 -18.327 -3.18217 -3.55893
237 79 2 6.52487 -6.843 -12.1201 11.3061 -6.69344 -1.59944
235 79 1 5.54152 -7.08999 -11.9926 -19.1484 -2.85963 -2.7896
98 33 2 4.35446 -7.0916 -10.6106 -9.95968 11.7238 13.1142
170 57 2 0.775649 -5.94648 -10.2344 -5.21448 -4.77546 -0.318371
97 33 1 3.67105 -6.84371 -9.8522 17.1908 -5.97017 -1.56613
14 5 2 0.313653 -4.88723 -15.6394 6.97646 9.63688 1.13281
188 63 2 -2.37466 6.93387 -13.8803 13.6711 -9.26026 -7.05488
189 63 2 -3.50963 6.04948 -13.2764 -0.417784 -22.9217 -2.6155
187 63 1 -2.60182 5.94355 -13.7524 -16.1518 33.7616 7.2278
587 196 2 -7.04654 0.701425 -14.359 -11.5543 -4.17636 8.04481
198 66 2 -3.41883 3.63334 -15.2918 4.66641 1.79558 11.0966
329 110 2 -1.01232 4.27771 -10.0262 9.96963 -1.56408 3.23007
328 110 1 -0.388827 4.88005 -10.5644 -8.24176 6.10957 1.1214
644 215 2 -2.33288 3.1092 -11.0957 -3.13013 2.48323 3.28547
517 173 1 -4.973 6.19941 -16.1126 -7.52579 -2.58913 7.39384
645 215 2 -3.5043 2.01169 -10.5137 11.4028 7.66238 -3.17105
643 215 1 -2.71206 2.17341 -11.1589 -13.9687 -9.22824 -5.73347
246 82 2 -5.6681 4.46748 -12.8406 -2.0568 -7.95861 0.365141
8 3 2 -0.468769 2.28448 -14.088 13.1629 -4.86883 5.27817
540 180 2 -3.20403 0.711157 -12.625 1.46474 -7.86343 11.7402
638 213 2 -1.55068 0.682313 -11.7653 1.27508 2.35996 10.6604
518 173 2 -5.38557 5.43194 -15.5739 1.89945 1.24139 -5.07983
481 161 1 -6.99362 3.17712 -13.2395 -1.57637 -3.73146 23.6961
482 161 2 -6.91791 2.96569 -12.2272 0.11014 0.000257695 -9.79747
84 28 2 -1.25636 5.11713 -13.3141 10.1766 -4.27549 -2.03771
448 150 1 -6.91041 1.63361 -10.8598 -5.07047 2.87301 -9.82759
245 82 2 -4.35981 4.94894 -11.8267 -18.3391 -8.15902 -1.99706
244 82 1 -4.97762 5.19205 -12.6222 16.6633 13.939 -0.461807
82 28 1 -0.350706 4.60839 -13.4282 -11.4121 3.83537 -9.61263
469 157 1 -1.79769 7.03611 -9.79621 -0.946771 1.30391 -7.54049
470 157 2 -1.11115 6.49219 -10.341 -0.0379874 -11.6057 7.16679
488 163 2 -5.65039 6.68533 -12.2915 -4.35512 -18.993 0.175059
583 195 1 -5.07961 4.2828 -9.98193 -9.42392 2.83563 -7.92092
584 195 2 -6.05894 4.12052 -10.2592 14.5695 2.06213 10.4948
450 150 2 -6.23516 1.31467 -10.1513 -0.419804 0.0321109 3.22669
555 185 2 -4.697 0.737415 -14.3427 -9.67156 -7.29636 -8.17106
553 185 1 -5.55898 0.876579 -14.9057 9.12869 4.50167 14.359
554 185 2 -5.50598 0.504452 -15.8476 4.61474 -6.3612 -4.17917
519 173 2 -4.00706 6.26227 -15.8098 3.90777 -1.2491 -1.23467
179 60 2 3.55857 0.777253 -15.4687 0.998585 1.08231 4.78605
178 60 1 4.43079 0.71957 -15.9893 -0.40664 -2.21984 5.89206
180 60 2 5.23614 0.700679 -15.3389 -1.48391 4.779 3.28495
588 196 2 6.31369 0.047799 -13.1976 6.87465 -0.193766 -2.31086
335 112 2 0.755395 7.08075 -14.727 9.68637 12.7536 5.65854
586 196 1 6.46835 0.688971 -13.9825 2.54124 1.90208 -8.20372
7 3 1 0.38948 1.89518 -13.6746 -5.39216 3.3468 2.4204
330 110 2 0.580325 4.54347 -10.6095 -0.779101 -6.09915 -1.03324
449 150 2 7.01732 0.840268 -11.2052 8.61694 -0.0598814 11.1249
483 161 2 7.12423 2.28669 -13.597 0.557569 8.49288 -8.2784
531 177 2 6.30336 4.45578 -13.8477 13.3585 -13.8472 2.53598
9 3 2 0.839733 1.19299 -14.2467 -3.23481 -4.53036 -4.64883
529 177 1 5.60268 4.98521 -14.3516 -16.4196 17.1656 -6.70263
530 177 2 5.71116 4.86901 -15.3692 5.96293 -7.27801 4.26089
236 79 2 5.12378 6.9349 -12.8052 10.7294 3.14162 8.48606
224 75 2 1.18863 2.87129 -12.4518 1.04341 -1.83313 -0.763686
223 75 1 1.64405 3.44236 -11.7187 -8.89502 -11.4228 13.294
225 75 2 2.37578 4.01575 -12.1924 1.17757 1.98408 -5.06156
271 91 1 3.16608 4.90694 -13.1685 18.6215 30.4713 -23.0385
272 91 2 2.80062 5.82911 -13.4734 -6.65826 -15.544 5.86975
273 91 2 4.06919 4.88366 -13.6955 -5.79534 -8.9598 11.0141
83 28 2 0.173886 4.52719 -12.5532 -3.73431 2.95238 3.51718
281 94 2 2.75057 0.0466504 -12.1137 4.52713 13.73 -0.260339
479 160 2 1.60208 2.64227 -10.1397 10.9103 0.854518 -3.1733
464 155 2 5.44804 1.90644 -9.9514 -3.66668 -1.18457 7.83674
144 48 2 3.35761 7.21689 -15.5635 13.0565 0.840535 -7.86227
334 112 1 1.69646 6.71182 -14.8769 -1.95975 -6.51484 -4.3163
226 76 1 0.509982 4.64703 -15.9282 -6.99219 10.2117 -9.65737
336 112 2 1.47498 5.79883 -15.3293 6.2424 6.35184 1.85137
228 76 2 0.0643011 4.58825 -14.9924 2.74813 -3.42533 7.38888
369 123 2 -6.69104 -2.70991 -6.97918 2.18698 -14.5719 10.5687
485 162 2 -7.14222 -6.73831 -8.00487 -9.42172 3.16621 -7.20037
363 121 2 -2.23011 -4.47227 -9.03305 20.1877 4.16054 -4.32082
361 121 1 -2.88754 -5.16653 -9.38564 -45.1278 -4.36939 3.77833
22 8 1 -1.22203 -3.12256 -9.33699 3.01856 8.96359 9.59362
362 121 2 -2.58413 -6.15914 -9.46129 13.1449 8.73188 -3.63637
616 206 1 -3.6912 -1.12119 -3.48162 16.7046 -10.2941 -4.22533
617 206 2 -3.05415 -1.26489 -4.28697 -15.754 16.0906 -0.690107
283 95 1 -1.54453 -0.390324 -8.61142 7.73752 -19.7442 -0.0365928
284 95 2 -1.54727 -1.41603 -8.77397 -2.1296 7.59787 1.5894
68 23 2 -6.28676 -0.566247 -6.2848 -4.38595 -6.34682 -6.12104
285 95 2 -0.559627 -0.175453 -8.40041 -5.22164 4.10472 -1.03282
603 201 2 -7.23638 -5.1367 -4.60665 5.90346 3.16802 1.43661
311 104 2 -2.50273 -0.19558 -6.87833 -4.49998 8.82576 10.9694
231 77 2 -3.81303 -4.90886 -8.04724 -16.1837 -6.49975 19.2746
172 58 1 -5.19146 -2.26767 -7.33554 24.003 -17.9606 -2.52042
173 58 2 -4.9434 -3.25319 -7.55768 -12.311 7.07533 1.34967
230 77 2 -3.66201 -5.34709 -6.46872 5.1096 1.74008 2.91754
229 77 1 -4.33277 -4.94563 -7.12491 12.4312 4.04674 -26.029
24 8 2 -0.290092 -3.57282 -9.24416 -9.79193 8.20679 -0.109582
621 207 2 -0.524462 -2.84336 -5.49982 -3.92173 1.82004 -8.26115
620 207 2 -0.151404 -2.54769 -7.08857 -6.1428 -3.89189 -1.6528
619 207 1 -0.825659 -2.3148 -6.34375 29.8169 -23.1532 17.9381
624 208 2 -4.79927 -0.0500502 -8.42302 -6.59169 1.96036 6.27834
312 104 2 -1.71088 -1.19585 -6.01335 -4.57966 -5.25862 4.11389
310 104 1 -2.48348 -0.506699 -5.89335 -4.78596 5.20585 -20.1785
174 58 2 -4.34934 -1.99473 -6.8324 -2.5509 11.7115 2.25232
594 198 2 -1.58127 -4.57564 -5.94119 2.22288 -8.14958 -1.33247
567 189 2 -5.10524 -2.04108 -3.35102 12.3299 15.0412 1.71214
566 189 2 -5.50223 -3.61454 -3.33296 -5.05183 4.99795 13.3703
592 198 1 -1.84468 -5.56718 -5.93566 -7.00702 8.42859 -0.912144
593 198 2 -1.00531 -6.14353 -5.82164 3.41155 -1.35546 -4.56758
414 138 2 -0.81237 -4.61071 -3.5498 0.0340996 1.51961 4.55536
412 138 1 -0.484745 -3.6881 -3.86856 -1.78171 15.1242 -13.5473
413 138 2 -0.803608 -2.86793 -3.34607 -1.29804 -13.224 5.41218
105 35 2 -2.92661 -7.10816 -5.13768 10.4163 8.40844 -5.72061
268 90 1 5.79043 -0.925853 -7.7875 -19.7606 21.4291 -0.293028
270 90 2 6.18242 -1.73127 -7.27328 5.75127 -8.7328 -3.74235
269 90 2 5.64283 -1.01682 -8.78909 6.99441 -7.69119 2.40892
216 72 2 5.87147 -5.92984 -6.57727 1.98606 7.58595 1.41545
214 72 1 5.4703 -6.19185 -7.48189 -1.37851 -8.51812 11.7664
123 41 2 4.33791 -3.87653 -9.20599 12.1694 -4.24912 -2.217
215 72 2 5.04794 -7.10946 -7.3181 0.584483 -1.37568 -1.41693
475 159 1 1.41286 -0.775082 -8.84149 -7.64555 -7.8644 -4.86671
368 123 2 6.66937 -3.75393 -6.03191 12.9696 -8.5356 1.15372
367 123 1 6.9119 -2.86739 -6.47532 -20.0369 18.4616 -3.70879
601 201 1 6.29741 -5.12281 -4.90594 -4.0437 -10.0753 -3.02327
319 107 1 0.984854 -0.0726321 -5.87558 -6.8736 10.0652 -5.46112
320 107 2 0.319855 -0.795828 -5.63506 -5.60689 -0.69496 -4.846
261 87 2 5.81454 -0.522722 -4.22522 -2.82877 8.3533 1.63919
205 69 1 0.871027 -4.16697 -7.8886 20.1465 13.2222 6.5261
206 69 2 1.03769 -5.11092 -8.24741 -14.0043 -12.5192 -8.38763
122 41 2 4.42894 -4.5158 -7.58941 7.81554 -3.6359 -17.695
121 41 1 3.85377 -4.0763 -8.32057 -22.8717 10.52 14.8291
169 57 1 1.20443 -6.2827 -9.36387 11.1174 -6.51112 -1.6533
207 69 2 1.83416 -3.83877 -7.97982 -2.69395 8.03525 2.6662
425 142 2 3.20068 -3.68915 -3.86576 -4.23585 -0.541971 6.78432
602 201 2 5.81072 -5.69628 -4.19569 -3.15788 -1.90213 -0.868944
424 142 1 3.64486 -4.61099 -3.87214 -4.38245 9.51172 -11.0752
426 142 2 4.28763 -4.55399 -4.65752 9.57838 -4.03408 2.29789
563 188 2 3.26923 -2.65719 -7.58386 2.71561 -5.2846 -1.78468
148 50 1 2.95171 -7.22808 -4.99019 -6.66885 -5.71732 -24.8514
149 50 2 3.2747 -6.38028 -4.51509 -1.45877 -1.42614 11.8987
606 202 2 2.45884 -1.92637 -5.17718 0.340296 13.6719 7.23965
562 188 1 3.11868 -1.74694 -7.13535 8.63235 -12.0417 3.84667
564 188 2 4.01495 -1.26565 -7.2639 1.68519 8.78 5.05837
604 202 1 2.36603 -1.70272 -4.16812 -7.27196 -12.494 -7.34157
605 202 2 1.71907 -0.907031 -4.05005 9.63901 -5.20884 -12.967
550 184 1 5.32046 -7.22827 -3.22724 9.05833 5.02052 2.27382
476 159 2 1.96584 -1.17804 -8.04834 -1.56268 12.4573 -3.67614
99 33 2 4.09461 -6.31239 -9.07526 5.07869 -2.57392 -13.9484
171 57 2 2.20321 -6.51847 -9.62364 -11.6481 -0.89736 3.8469
342 114 2 0.927028 -7.05627 -7.59569 -15.5976 -4.00475 7.50282
484 162 1 -6.46074 7.03894 -8.20989 3.75922 3.62324 7.4219
486 162 2 -5.65486 7.22199 -7.62072 1.35286 -0.986501 -7.42489
69 23 2 -5.64111 0.636759 -5.41189 3.26765 15.0553 0.955991
67 23 1 -6.33275 0.434748 -6.13602 -6.74102 -6.8717 1.20748
585 195 2 -5.01689 4.88945 -9.15044 -0.107374 -6.64724 -1.57588
80 27 2 -5.39686 4.26971 -7.31693 -2.87178 -0.886234 6.14079
79 27 1 -4.62229 4.95927 -7.26391 14.3086 -1.97814 -3.67025
623 208 2 -6.08342 1.03127 -8.05012 5.54294 -8.29263 11.6301
622 208 1 -5.26525 0.832405 -8.63024 2.59149 5.12997 -28.7832
81 27 2 -4.83271 5.65495 -6.56781 -4.30433 2.62711 5.82796
85 29 1 -0.498641 2.33974 -7.73435 -9.09009 3.38067 16.1247
183 61 2 -6.76068 2.42042 -6.4487 -0.545362 25.3658 -14.9122
456 152 2 -6.73058 5.62163 -3.82205 -1.26758 -0.829534 1.03851
181 61 1 -6.70593 3.39132 -6.86156 -13.0303 -21.8331 10.1718
87 29 2 -0.161113 1.84033 -6.90273 -2.83614 3.09085 -8.34663
31 11 1 -2.56126 3.50566 -6.02672 -10.9343 -1.72196 -5.41757
32 11 2 -1.93689 3.04843 -6.71383 -1.6028 5.74662 3.86384
503 168 2 -5.17817 3.11093 -4.68114 -4.20366 -8.31791 2.44286
502 168 1 -4.75093 2.20048 -4.84677 -0.0605863 11.3304 4.19827
504 168 2 -3.95799 2.38953 -5.46516 7.33261 -5.0523 -2.9752
33 11 2 -3.23104 4.14533 -6.4946 9.55926 -6.38143 -2.10885
471 157 2 -1.63433 6.86638 -8.80948 3.97816 -4.65991 5.59613
152 51 2 -2.87673 3.28151 -3.97467 19.621 5.80732 -2.72309
104 35 2 -2.00354 7.23063 -3.72843 -0.223659 0.867177 -11.5859
103 35 1 -2.69632 6.78889 -4.35881 -2.99378 -4.22334 22.3038
38 13 2 -4.02882 6.61293 -3.34142 -12.101 -5.10095 -4.88926
477 159 2 1.72151 0.172835 -9.05141 1.65664 8.48805 4.72816
321 107 2 0.899857 0.74606 -5.2499 1.45686 -0.442908 6.93058
454 152 1 6.91067 5.33133 -4.30214 5.91941 -2.22572 -4.33571
455 152 2 6.94614 4.32057 -4.4788 -1.42053 7.15812 4.05618
259 87 1 5.61141 0.375298 -4.68436 -6.56894 -9.63114 16.1443
260 87 2 5.90456 0.279524 -5.64501 5.13652 2.54234 -13.8079
150 50 2 2.47265 6.59693 -4.361 1.86619 10.7335 10.2278
209 70 2 5.51166 5.93158 -5.55332 4.82565 -8.38434 1.55064
551 184 2 6.00561 6.51911 -3.40038 -9.3504 -0.606266 -1.97273
182 61 2 6.89971 3.74279 -7.23238 9.04641 -9.53884 4.99835
86 29 2 0.274783 2.43779 -8.39766 8.58213 -6.41746 -2.95949
11 4 2 4.16145 4.04152 -6.56666 4.29705 10.4482 1.11502
463 155 1 5.20104 2.47645 -9.14014 7.75259 -5.40828 -7.62276
305 102 2 1.25379 2.66824 -4.2633 -13.9253 -10.6029 3.03817
548 183 2 6.19427 5.8926 -9.59079 4.89609 0.545835 -3.44631
547 183 1 5.6698 5.13687 -9.15865 5.82652 5.10599 3.04989
549 183 2 5.04921 5.57482 -8.48251 -2.60559 -5.46023 1.43782
340 114 1 0.614404 7.17618 -6.64309 30.3862 5.49045 -11.2865
304 102 1 0.913883 1.73947 -3.93698 8.34189 -17.0865 -6.45671
341 114 2 1.50703 7.1694 -6.11437 -14.6168 1.78734 3.07835
445 149 1 4.37626 2.70263 -3.68923 2.63309 -3.21427 1.45283
446 149 2 4.68831 1.77137 -4.05953 -2.67044 16.2734 0.13436
447 149 2 4.00884 3.32383 -4.41953 5.58353 -14.9463 2.27346
12 4 2 4.36422 2.7904 -7.62753 -0.885399 -3.35468 2.13017
10 4 1 3.83082 3.10896 -6.79976 -2.99286 -3.04009 -6.60638
480 160 2 2.66051 2.4445 -8.8 -2.96188 0.682606 -7.32833
478 160 1 1.74662 2.21822 -9.21015 -1.3271 -2.14939 4.52617
118 40 1 1.24539 3.72118 -5.54346 22.5053 15.673 -19.8566
120 40 2 1.86275 3.07668 -6.07461 -4.1495 8.03723 6.66688
119 40 2 1.06393 4.52724 -6.1539 -5.54853 -7.47904 5.48777
465 155 2 5.76665 3.3289 -9.26979 -12.5036 6.44552 5.00076
210 70 2 3.94495 6.22566 -5.80993 -8.03361 7.74557 5.53415
208 70 1 4.75628 5.75489 -6.22575 6.66018 -1.80315 -7.93847
443 148 2 1.47945 4.80737 -4.03707 -13.0977 -4.85816 -10.224
442 148 1 1.39019 5.70147 -3.55467 -1.20888 13.2365 13.7572
444 148 2 0.523356 6.23793 -3.7222 6.9882 -13.9984 -1.58455
618 206 2 -3.05616 -1.14389 -2.65747 -6.28908 0.280715 0.0149621
490 164 1 -3.11772 -3.89694 -0.609143 8.46257 -6.38881 3.67053
492 164 2 -3.71041 -4.64869 -0.959867 -9.82717 1.53003 -1.65105
491 164 2 -2.2179 -4.04213 -1.05928 -1.5868 6.10374 1.51228
565 189 1 -5.73713 -2.70772 -2.90721 -10.1857 -22.7483 -8.57584
277 93 1 -6.15072 -2.3038 -0.342868 0.128952 2.33067 12.5892
279 93 2 -5.96242 -2.46816 -1.34306 5.7382 -4.15214 -9.05749
613 205 1 -2.83549 -6.88705 1.55972 2.06326 -1.28363 5.72297
615 205 2 -2.27796 -6.87632 0.701098 4.0992 -4.4705 -1.58104
278 93 2 -5.28131 -2.48528 0.179412 -5.80655 2.08591 -0.779368
557 186 2 -4.03994 -3.55645 2.57369 -3.23289 -5.52231 7.9582
578 193 2 -1.37437 -6.44922 3.10538 8.41039 8.57872 -4.04723
350 117 2 -0.534305 -2.9179 0.820858 -4.65987 0.796952 0.416089
558 186 2 -3.69536 -3.20787 0.976574 -4.89024 -1.32769 4.44665
556 186 1 -4.27317 -2.93921 1.79631 10.4954 2.50044 -15.5586
579 193 2 -0.177396 -5.45642 2.4131 -4.2997 -0.218021 -4.64569
525 175 2 -4.65104 -6.62872 0.841325 5.38455 0.0300487 2.54642
360 120 2 -7.12582 -2.63674 0.941927 -5.61038 5.71273 12.4324
359 120 2 -7.15732 -2.82091 2.64054 5.67665 8.46921 -1.4729
524 175 2 -5.65239 -5.37296 1.21885 1.86553 -0.748478 -1.00909
523 175 1 -5.37141 -6.00149 0.468094 -6.70933 1.99681 1.25891
240 80 2 -1.16152 -0.501427 -1.93816 1.54246 2.99675 -1.98007
238 80 1 -1.89114 -1.08641 -1.53743 7.56685 4.18178 5.4728
239 80 2 -1.93172 -0.775599 -0.551914 -3.31732 1.43 -3.25028
325 109 1 -4.72565 -0.347482 2.79982 0.451082 16.1363 -0.132176
326 109 2 -4.5309 -1.31156 2.53076 1.68088 -11.1561 -7.53645
43 15 1 -5.11255 -5.60245 -2.17009 8.27088 15.4858 -14.0421
44 15 2 -5.06587 -6.49451 -2.67372 -5.83997 -8.23207 7.35679
309 103 2 -0.846784 -6.82851 -1.9916 -4.77128 0.821238 -2.20073
307 103 1 -0.705899 -6.29987 -2.8733 9.51756 -1.20812 16.4712
315 105 2 -7.08313 -0.139723 -0.483152 11.4819 8.95716 8.81722
45 15 2 -5.30303 -5.73646 -1.17007 -3.8709 -7.54267 6.93165
339 113 2 6.88422 -2.11147 -2.15327 -0.0846715 -3.42742 -10.2754
349 117 1 0.374686 -2.55779 1.07736 0.829129 -2.07206 -5.27644
351 117 2 0.274886 -1.62943 1.50873 6.24078 -0.54873 4.60499
420 140 2 2.26492 -6.968 -0.534551 -11.9938 -2.20436 0.759869
338 113 2 5.95981 -0.787861 -1.81284 0.782663 -4.29192 -11.0616
337 113 1 6.0489 -1.59367 -2.44164 -4.06457 12.0525 19.3719
258 86 2 2.90995 -1.26466 -2.84048 0.996052 1.84247 3.24885
257 86 2 4.24534 -1.42129 -1.9407 0.208288 5.04765 -2.0075
552 184 2 5.4819 -6.88186 -2.25189 0.838614 -2.95761 -8.72571
194 65 2 2.91046 -2.4224 -0.944069 -4.35876 5.49229 1.57083
608 203 2 6.98183 -6.30559 -0.448829 8.58523 -9.10797 -0.902696
607 203 1 6.11791 -6.19336 -0.966224 7.29353 -2.16053 6.21256
609 203 2 5.72519 -5.34648 -0.610684 -13.587 14.2521 1.41375
419 140 2 2.12531 -6.85496 1.07821 3.66634 -6.36138 3.20856
193 65 1 2.6803 -3.24718 -0.375692 -0.503502 -11.5282 -2.05023
545 182 2 4.22055 -5.96302 2.70562 6.02974 -0.075473 -0.486859
544 182 1 3.72504 -6.76798 2.3274 -17.7982 16.9995 4.35499
373 125 1 1.8053 -5.48444 -2.07401 -10.0224 -8.42539 0.858937
374 125 2 2.6936 -5.37985 -2.57078 4.60805 1.88342 -9.17075
375 125 2 1.71831 -4.67769 -1.47031 4.78548 7.99887 7.83716
418 140 1 1.65539 -7.23515 0.252216 14.251 0.290391 1.63824
256 86 1 3.30143 -1.01523 -1.90249 8.81318 -12.8594 -0.363477
250 84 1 4.19964 -2.57071 1.90537 1.81424 3.07017 1.95359
252 84 2 5.2382 -2.36859 1.88026 -13.7132 -18.1072 -6.18107
358 120 1 6.76967 -2.65791 1.7982 12.5725 -7.05746 -6.41109
251 84 2 3.86396 -3.13847 1.10621 4.79846 8.65274 4.06065
506 169 2 1.54365 -0.125229 2.62515 -2.33144 -3.42576 6.4134
308 103 2 0.248266 -5.92406 -2.68557 -1.73353 -3.40324 -7.66847
195 65 2 1.77269 -3.12885 0.0947059 0.369334 9.2481 5.47145
398 133 2 3.55432 -1.20678 2.2392 -13.37 6.75884 7.81355
397 133 1 3.10116 -0.273363 2.42387 21.4429 -6.64077 -16.8734
505 169 1 0.505743 -0.187058 2.71822 -15.99 3.62801 -15.0651
110 37 2 -4.98476 0.763679 -2.90333 2.11003 7.15766 6.05621
111 37 2 -3.90948 0.72846 -1.67777 0.713457 1.19388 3.38199
157 53 1 -0.912956 6.97572 -0.394331 -1.53654 -0.948318 4.80515
158 53 2 -0.00349413 6.86105 0.105662 -3.92031 10.6703 -12.0419
151 51 1 -2.7455 3.02348 -2.99564 -20.9216 -3.36953 -0.975402
153 51 2 -3.56609 2.40599 -2.89335 8.74455 2.52351 11.7647
96 32 2 -1.21655 4.09926 0.432561 1.19196 -9.53757 -1.1145
314 105 2 -6.13916 1.09966 0.226075 0.409682 -6.23309 -7.47389
109 37 1 -4.73344 1.22071 -2.0131 -2.10817 -11.2894 -6.60038
94 32 1 -2.02074 4.35877 -0.155797 -8.87915 1.9707 -16.6946
95 32 2 -2.12661 3.78711 -1.017 7.7605 5.43476 9.13996
37 13 1 -4.99519 6.30928 -3.08065 17.2508 -10.9651 -6.14628
409 137 1 -4.70548 4.20396 0.38831 -9.72721 -1.0689 1.4121
410 137 2 -3.7145 4.21316 0.131194 9.80178 1.84679 4.40759
411 137 2 -5.22876 4.6214 -0.373524 -1.61853 -0.693221 -5.7501
39 13 2 -4.88947 5.28689 -3.01771 -8.36936 6.76066 7.35042
248 83 2 -7.14455 2.70111 2.22106 -10.364 -7.18486 15.5947
247 83 1 -6.42226 3.39691 2.37724 -7.0599 -1.61503 -8.7682
568 190 1 -0.378023 2.96055 1.73719 -8.13872 -26.7124 -8.46832
590 197 2 -1.51005 1.48475 0.635958 2.35833 -5.74346 3.7344
589 197 1 -1.68964 0.480126 0.753349 -5.7426 -3.64715 -1.54241
327 109 2 -3.91451 0.24974 2.65412 1.216 -2.76247 -2.13639
159 53 2 -1.33813 6.04473 -0.43923 -4.44883 -8.1695 0.435863
249 83 2 -6.14566 3.61248 1.42435 16.6316 12.8031 -4.87175
313 105 1 -7.08102 0.74599 0.041004 -6.5279 -5.55428 -1.11679
134 45 2 -5.93547 2.65355 -1.84972 -0.675049 1.43403 -1.0771
135 45 2 -7.02623 4.00929 -1.69645 4.84159 -18.2272 -7.74694
133 45 1 -6.16068 3.6164 -2.13364 -3.11929 21.823 0.675127
591 197 2 -1.18409 0.102081 1.55777 5.89543 5.846 2.16511
614 205 2 -2.50804 6.83057 2.17108 -9.24295 3.88076 -12.5401
510 170 2 -4.60863 3.74114 2.69523 3.07648 -0.243563 3.05453
569 190 2 -0.400413 2.06881 2.25106 3.87307 8.73914 -0.0971571
254 85 2 -0.658052 5.30449 3.07601 7.45292 -1.29061 6.69185
306 102 2 0.738414 1.67475 -2.92494 -3.35819 12.0449 8.6003
468 156 2 5.275 3.52729 -2.19636 6.89457 8.89109 11.7928
467 156 2 5.20867 3.72112 -0.528249 -2.44417 4.59488 5.72737
234 78 2 2.90505 0.580379 -1.30304 6.10375 -15.1208 7.81676
546 182 2 4.27591 6.88862 2.49888 8.57288 -14.1436 0.468446
466 156 1 5.72353 3.97932 -1.3684 -5.90118 -12.7705 -16.8195
233 78 2 3.12148 2.13923 -0.98446 1.44711 4.69011 5.73304
19 7 1 0.959743 4.31613 -0.562127 9.06972 28.0447 -5.5685
232 78 1 2.93702 1.25164 -0.523271 3.09203 8.72371 -1.79916
399 133 2 3.34787 0.24308 1.57356 -7.3084 4.88037 4.3075
177 59 2 6.64402 0.599626 2.8769 0.325444 -3.64038 9.66952
176 59 2 6.53486 1.09029 1.36323 -1.35582 2.19809 -4.93125
263 88 2 0.0573737 2.60684 -0.846254 5.7969 11.1756 3.66287
175 59 1 6.19293 1.31112 2.31722 -2.28854 0.199704 -4.71395
21 7 2 1.15771 4.48616 -1.54395 -3.25134 -7.29214 -6.24566
512 171 2 5.35765 4.71658 2.46196 -7.06792 8.54302 4.19356
511 171 1 5.11323 5.49841 3.09277 0.62719 -8.04554 -1.46079
386 129 2 3.36169 3.39005 1.67339 -1.62727 5.92678 -2.81144
385 129 1 4.29655 3.43775 1.27789 1.16783 -9.31184 -1.99463
387 129 2 4.6857 2.49899 1.35912 5.84012 -0.0232857 1.60237
262 88 1 0.469348 1.80851 -1.3215 -12.1502 -25.4866 -5.56519
264 88 2 1.23867 1.45607 -0.735522 2.18178 3.5784 0.00837358
570 190 2 0.192343 3.63939 2.25578 -1.26526 10.4032 2.76311
20 7 2 1.31521 5.17784 -0.147187 -0.988837 -2.80652 11.3853
253 85 1 0.358942 5.06366 3.13155 9.05028 7.50781 4.10879
348 116 2 -3.93543 -5.43822 4.87756 -4.07143 2.3596 -2.30037
346 116 1 -3.96368 -4.67992 4.1825 25.631 -6.09009 -2.6004
577 193 1 -0.499236 -5.92594 3.25326 0.671664 -6.30838 8.73782
347 116 2 -2.96226 -4.41495 4.20527 -10.1663 8.66874 2.20107
62 21 2 -5.31397 -2.64884 4.41703 7.82371 2.245 14.1837
61 21 1 -6.29325 -2.80171 4.22084 -31.5667 -18.2812 -19.552
275 92 2 -5.42478 -5.57877 4.01568 -0.866095 -6.40831 1.73805
274 92 1 -6.19211 -6.21974 4.29243 10.664 28.3828 -11.8725
92 31 2 -0.751 -4.66133 4.89188 -2.18811 -1.53974 4.95642
520 174 1 -4.23198 -1.10118 6.07744 6.10293 8.96357 -0.982742
521 174 2 -4.29536 -1.88558 6.7487 -13.4586 -4.09032 -12.6573
124 42 1 -6.42729 -0.0660372 4.74659 10.5055 27.5386 14.29
63 21 2 -6.985 -2.50611 4.92492 17.9661 1.63604 3.97116
166 56 1 -4.58239 -3.73363 7.15011 -13.3839 5.63733 -6.82041
91 31 1 -1.35832 -3.86458 5.09849 -1.55556 6.37725 -13.6953
168 56 2 -4.39144 -4.3102 7.95029 7.87569 -7.60791 9.12178
93 31 2 -1.45274 -3.6808 6.09774 2.53531 -4.26249 9.63333
355 119 1 -0.527868 -3.28233 8.16216 5.65757 -2.95707 10.0872
357 119 2 -0.801159 -3.54979 9.11637 -8.08231 -0.0853645 -6.15146
522 174 2 -5.04799 -0.787542 5.52704 -8.67203 -10.9158 11.1985
163 55 1 -3.51724 -6.48815 8.79474 0.381711 -6.49121 2.4969
164 55 2 -4.52653 -6.33139 8.6311 2.82768 -0.406164 2.72192
167 56 2 -5.57872 -3.85799 6.92723 3.9421 6.43089 0.802891
366 122 2 -0.433341 -2.2461 4.87441 -6.49439 -6.79478 3.0726
365 122 2 -0.302719 -1.01123 5.97593 -5.68861 0.725308 2.01625
276 92 2 -6.9332 -5.57999 4.56462 -10.2048 -4.96906 4.22023
429 143 2 -4.74694 -7.12897 5.22834 -9.46683 -6.97549 -1.25375
534 178 2 -3.01724 -0.174634 6.24727 -6.69974 -17.6469 9.54248
242 81 2 -7.22835 -5.83783 8.52127 9.91936 2.86509 -2.23079
16 6 1 -0.9711 -6.71868 7.39196 11.8447 4.33273 -2.83492
17 6 2 -1.74148 -6.43241 8.00447 -7.02325 -2.34804 -2.26463
243 81 2 -6.32221 -7.15589 8.48188 13.1334 21.6327 -4.48035
241 81 1 -6.22897 -6.11925 8.65445 -20.5788 -27.3576 -1.05308
507 169 2 0.220035 -0.323381 3.69913 7.59573 -3.59104 0.588334
332 111 2 7.2215 -2.23234 7.92823 2.51515 3.69981 3.9456
333 111 2 6.0982 -3.1078 7.07856 18.2583 -3.00654 0.5705
331 111 1 7.11654 -2.89922 7.17177 -25.9975 -3.75884 -6.70379
204 68 2 5.20441 -6.96567 8.85884 12.4563 15.0591 -7.11104
266 89 2 5.22984 -4.20987 4.65891 -1.52156 -3.72962 4.35469
267 89 2 6.25744 -4.47513 3.38489 -2.36134 1.39296 -0.831529
536 179 2 2.36367 -3.15206 3.99517 1.22229 7.16546 7.52154
535 179 1 2.58099 -2.73224 4.90673 11.1244 -5.26492 -19.8574
265 89 1 5.67685 -4.93302 4.08737 0.0157838 2.1784 -2.44809
213 71 2 2.35192 -6.69286 6.0513 2.97108 4.22014 19.832
211 71 1 2.70238 -6.64962 7.05493 19.883 5.01304 -21.4451
301 101 1 4.29781 -3.6392 6.52283 24.0051 15.8484 -11.1234
303 101 2 3.65063 -4.01553 7.20149 -11.0322 -6.66241 12.6827
575 192 2 0.302572 -6.93893 8.42096 -5.96501 -9.87925 5.72558
356 119 2 0.44908 -3.5814 8.07488 2.81851 -1.5354 -5.79144
537 179 2 1.83419 -2.10556 5.17751 -20.8398 10.0059 0.580683
364 122 1 0.120106 -1.43174 5.14707 8.30564 5.7792 0.210758
302 101 2 3.63951 -3.12157 5.89112 0.942049 -11.6285 -0.461265
64 22 1 2.19424 -4.26783 8.16832 16.0084 -20.2239 14.525
66 22 2 2.78473 -4.25689 9.00732 -7.72256 7.91962 4.09275
203 68 2 4.89547 -6.00406 7.60881 4.28424 5.64462 -5.06305
36 12 2 0.877539 -6.34657 4.31379 -16.8738 0.0186077 6.22355
202 68 1 5.57396 -6.12232 8.36232 -12.2291 -13.6612 8.91406
126 42 2 7.14284 -0.463644 4.59634 -5.71132 -7.26733 -5.19411
472 158 1 6.05201 -0.838162 9.65472 -8.96928 -8.03512 11.7691
473 158 2 5.29069 -0.668313 8.98536 -3.39179 0.970995 -8.59921
2 1 2 5.12697 -1.74094 5.3903 8.51808 3.58935 -3.26406
1 1 1 5.53464 -1.23308 4.59823 -15.4935 -5.35432 1.34985
3 1 2 4.75802 -1.12541 3.93202 7.76967 2.57139 1.62317
372 124 2 5.60935 -6.45329 4.95182 9.72204 -1.205 5.66811
34 12 1 1.76863 -6.66663 4.69455 4.30657 0.312597 -30.4878
35 12 2 2.35626 -6.53919 3.8674 9.41089 -6.12122 4.24724
102 34 2 3.70368 -0.659801 7.02956 -1.83196 0.462332 1.30358
101 34 2 3.01556 -0.68941 8.55195 -6.19215 1.5474 -0.958058
100 34 1 3.88361 -0.756828 8.02542 3.89876 3.01524 0.453364
65 22 2 2.31797 -5.27291 7.9032 -11.5503 12.4378 -11.4156
509 170 2 -4.40588 3.29376 4.24524 1.54065 4.64099 -1.75695
428 143 2 -3.41989 6.93876 6.16588 0.279554 -2.05671 9.41872
407 136 2 -2.72161 0.539988 9.39949 -12.6257 2.49552 4.72746
165 55 2 -3.32816 7.00941 8.92051 -2.24295 11.0477 -7.21392
417 139 2 -6.05265 5.78502 6.73319 -9.44922 -4.29355 -21.4227
222 74 2 -6.37925 6.61146 4.14478 -3.05723 7.58088 13.4535
220 74 1 -6.27315 5.71513 4.63976 3.86758 -17.4869 -7.17473
408 136 2 -2.0349 0.335562 7.84031 3.22985 4.76255 4.3732
406 136 1 -1.87421 0.634566 8.8393 29.2448 -5.0238 9.61122
508 170 1 -3.91018 3.75363 3.45672 -5.69734 -9.00199 3.70686
377 126 2 -5.19581 1.05136 9.0068 6.93219 0.784556 -1.28745
376 126 1 -5.67575 1.83741 8.56369 -9.21959 9.82561 11.7593
378 126 2 -5.50454 1.92174 7.57003 6.91967 -4.00571 -8.00672
125 42 2 -5.80701 0.0203419 3.90574 -9.40715 -13.6528 -0.23422
431 144 2 -1.0294 3.78657 9.10814 2.64527 -0.206096 2.24127
430 144 1 -1.73405 3.28563 8.55959 14.4228 14.5023 -4.0709
427 143 1 -3.74513 7.17674 5.23269 13.6538 8.67572 -6.80985
459 153 2 -6.33329 2.91844 6.05348 -4.22354 10.2739 -8.95358
457 153 1 -5.5974 2.57676 5.42245 1.29847 -21.9001 10.6258
458 153 2 -5.88172 1.59254 5.27141 5.71691 8.11386 -7.39274
402 134 2 -2.12849 2.31967 3.5795 -0.870153 -12.2779 6.23953
400 134 1 -1.43136 1.77479 4.11011 -10.9125 20.7654 -17.7262
401 134 2 -0.837865 2.55958 4.42003 -0.336083 -11.2027 14.598
291 97 2 -2.59022 6.52419 3.88642 -6.28071 -6.66522 11.2452