ITEM: TIMESTEP
24500
ITEM: NUMBER OF ATOMS
648
ITEM: BOX BOUNDS pp pp pp
-7.3616647762630114e+00 7.3616647762630114e+00
-7.3616647762630114e+00 7.3616647762630114e+00
-1.6359255058362621e+01 1.6359255058362621e+01
ITEM: ATOMS id mol type x y z fx fy fz
31 11 1 -3.82437 -2.36656 -10.1588 -15.4438 -27.1243 12.1355
32 11 2 -4.18417 -3.34082 -10.3309 3.82125 27.5116 2.90955
33 11 2 -3.64147 -1.86754 -11.0278 6.63483 -6.39613 -13.6513
309 103 2 -0.0596756 -2.44581 -10.622 -1.58506 -6.14345 -10.5922
610 204 1 -3.0191 -1.81418 -12.7377 5.17053 7.53802 8.50773
534 178 2 -4.42184 -2.67651 -13.4575 10.2925 -0.608268 6.80272
533 178 2 -5.87226 -1.96395 -13.7214 -8.78873 -1.16425 3.38852
532 178 1 -5.33655 -2.82231 -13.8866 -6.38333 -1.60387 -4.84919
612 204 2 -3.33303 -1.22868 -13.5311 13.1788 3.45488 4.17545
200 67 2 -3.1061 -0.460794 -16.354 -11.9434 5.01188 8.05422
623 208 2 -4.14745 -7.1544 -10.7116 -9.76773 5.27905 -19.4934
317 106 2 -0.915592 -4.52246 -12.1156 9.51897 7.82482 -3.99416
45 15 2 -5.53962 -4.73443 -16.1914 11.1484 -5.42745 10.2949
43 15 1 -4.76033 -5.05161 -15.5838 -15.2786 -2.69107 -22.6166
44 15 2 -4.84399 -4.66324 -14.6568 -4.80743 9.49578 10.4055
280 94 1 -5.7632 -4.61933 -9.97844 15.7258 -3.52246 -13.3324
165 55 2 -5.25178 -0.790427 -10.3156 -29.0927 14.909 7.72247
163 55 1 -6.18222 -0.312896 -10.1941 25.9187 -9.67436 14.69
316 106 1 -0.563166 -3.57856 -11.9536 -17.2634 0.650121 11.9293
60 20 2 -6.60004 -4.45639 -13.2669 -11.5903 2.86132 5.66227
611 204 2 -2.06642 -1.58802 -12.361 -16.8222 -4.59115 -15.4621
207 69 2 -5.02507 -0.487967 -14.7213 2.18073 0.792463 -1.73882
205 69 1 -4.09368 -0.0619086 -14.6375 -7.60709 -12.5274 5.35137
193 65 1 -6.74797 -0.250869 -13.7132 13.4915 17.3585 -6.49878
226 76 1 -0.401454 -0.413394 -12.0946 6.42473 15.984 -24.9036
228 76 2 -0.412196 -0.217773 -13.1211 1.39896 -2.68637 24.4931
396 132 2 -0.961742 -0.149791 -15.531 14.8843 5.22417 -6.20213
282 94 2 -6.58935 -4.04988 -10.1064 -9.70162 9.36153 -0.452825
81 27 2 -0.173616 -5.98628 -10.1443 -9.23492 -18.9994 7.01755
492 164 2 -6.99739 -1.65091 -10.7011 -6.17128 -7.92083 1.38583
79 27 1 -0.610815 -6.92779 -10.2255 1.32219 36.77 -20.8246
582 194 2 -2.40459 -2.74756 -16.3171 3.55617 3.98643 6.22142
581 194 2 -3.43928 -3.8144 -15.6387 -7.52661 -12.321 1.53294
580 194 1 -2.46608 -3.52824 -15.6513 7.64724 10.4645 -12.5781
377 126 2 -1.7707 -6.63523 -14.4304 -6.16055 0.829196 -21.7895
376 126 1 -1.52753 -6.54851 -15.4285 24.0205 -12.2674 28.7453
378 126 2 -2.1472 -6.01611 -16.0027 -20.0976 9.9642 -5.50138
425 142 2 -6.04887 -1.84445 -16.1576 -2.75223 2.64737 -12.7511
177 59 2 -0.0360172 -5.26978 -15.3842 5.65939 -13.2985 0.401876
176 59 2 -0.888156 -4.03217 -15.6897 -13.8866 14.902 2.83507
307 103 1 0.618856 -2.21582 -9.88981 -3.76227 10.5489 10.6122
318 106 2 0.43642 -3.41746 -12.1491 5.15198 -10.7662 -11.5408
246 82 2 5.93777 -7.31332 -16.1315 -11.8103 -15.3449 1.78576
59 20 2 7.1716 -3.98918 -12.0013 -2.06028 4.6936 0.19327
58 20 1 7.21975 -4.6316 -12.8025 10.4274 9.4723 -3.36776
245 82 2 6.67271 -5.98166 -15.6924 -14.0908 -4.56432 14.1371
196 66 1 2.98078 -6.8942 -13.844 -12.7551 -18.2016 4.44139
147 49 2 4.21582 -5.43757 -13.9595 4.31035 0.284464 0.654931
146 49 2 5.39844 -4.175 -13.8895 -24.5803 -14.4639 2.95892
145 49 1 4.37801 -4.4184 -13.9517 25.1036 15.2021 -6.2419
385 129 1 3.81347 -5.65715 -11.5436 -8.91251 2.03116 -17.9222
386 129 2 3.4158 -6.38072 -12.173 6.02024 3.1723 7.57769
387 129 2 3.83588 -4.85165 -12.1832 5.07835 -1.0089 4.28206
197 66 2 2.72904 -6.81363 -14.8187 2.03861 6.69296 -17.6284
504 168 2 3.90609 -3.76453 -10.0781 13.9952 16.8371 0.609747
502 168 1 4.36468 -2.84553 -9.93689 -13.6709 -23.8887 -3.8564
129 43 2 6.83286 -6.30249 -12.57 0.918472 18.3381 -4.97542
127 43 1 6.82965 -7.25131 -12.9398 8.19417 -32.8627 15.2413
456 152 2 2.26528 -3.03089 -11.502 -1.85627 -0.109462 -8.89058
625 209 1 1.32677 -1.91882 -15.5545 12.2485 8.12514 1.26398
128 43 2 6.50677 -7.22611 -13.9298 -4.20412 15.3035 3.07181
454 152 1 2.05233 -3.31432 -12.4683 -7.58109 5.15481 23.7217
455 152 2 2.81635 -3.06371 -13.0723 12.1325 -0.53195 -11.4116
626 209 2 1.12322 -1.54969 -14.6031 -1.51777 -15.2292 -22.1852
244 82 1 6.04326 -6.71415 -15.3101 21.9948 18.7537 -33.8593
490 164 1 7.14848 -2.50844 -10.8475 -0.891601 3.71555 -0.826105
491 164 2 6.17431 -2.27799 -10.6048 1.50589 -7.02161 0.490608
237 79 2 3.35716 -5.65376 -10.1016 -9.06205 -4.59754 -0.229519
393 131 2 2.34484 -3.52028 -16.0164 3.85663 -2.47609 -1.35968
392 131 2 3.77113 -4.19465 -15.6055 5.29113 -1.38626 11.0992
627 209 2 0.798609 -2.77343 -15.8303 -7.14148 5.58519 20.4239
175 59 1 0.0954631 -4.28172 -15.5682 10.8182 -1.45368 -7.93648
622 208 1 -3.89638 6.92483 -9.99391 8.4239 2.16939 17.3595
476 159 2 -2.57067 5.8607 -11.7736 -12.8736 0.0268697 -12.8142
475 159 1 -2.59804 6.60561 -12.4836 30.9456 14.392 9.3715
141 47 2 -3.8217 6.55237 -13.8148 -0.768332 -2.93257 -2.12146
477 159 2 -1.74896 7.1459 -12.2539 -19.3743 -5.38583 -5.08986
139 47 1 -4.51743 6.28754 -14.5315 -14.0491 3.45981 -7.62307
140 47 2 -4.99093 7.08301 -14.9802 14.0406 -5.74225 9.00438
641 214 2 -3.18956 3.3116 -15.3781 7.54691 -12.1888 4.82056
640 214 1 -3.21566 2.2872 -15.5016 -14.9333 17.8232 3.29803
522 174 2 -0.289114 3.19686 -12.0364 13.8017 -4.17822 5.53768
520 174 1 -0.684094 3.13891 -11.0854 -24.6502 -5.48536 1.56943
206 69 2 -4.16337 0.932833 -14.8757 11.8622 7.60473 -8.59615
617 206 2 -3.87455 2.42334 -12.2355 -8.35072 -11.7612 3.99677
143 48 2 -6.78425 4.25209 -14.2714 -7.38522 -1.44705 3.18112
195 65 2 -6.18847 0.588026 -13.5298 2.55751 -11.0793 9.94772
422 141 2 -6.51832 6.32511 -9.98137 -12.5347 -4.3329 12.0806
105 35 2 -6.0554 2.23047 -11.8906 6.79687 1.62387 0.797419
104 35 2 -6.67012 3.78552 -12.0725 -4.5636 11.6443 -12.6175
103 35 1 -6.61812 2.9778 -11.4749 -0.771893 -14.4738 11.7602
618 206 2 -3.92226 1.05058 -13.1808 -4.30153 -1.13727 11.611
616 206 1 -4.33641 1.48538 -12.3425 10.375 19.158 -11.9117
144 48 2 -5.48129 4.56381 -15.2273 0.468387 0.580121 4.48198
142 48 1 -6.16427 3.8372 -14.9805 16.9622 -8.34918 -16.2753
585 195 2 -2.30322 3.69594 -11.1636 4.86118 -7.3227 -5.80583
583 195 1 -3.20586 3.93101 -11.6038 -10.4153 3.1307 8.59224
584 195 2 -3.74721 4.48051 -10.9315 0.302865 -1.79979 -3.28752
395 132 2 -1.4616 1.05515 -14.7217 -6.43621 20.9769 0.152633
394 132 1 -0.579978 0.652646 -15.0035 -12.8806 -24.3367 6.68594
521 174 2 -0.193412 3.66809 -10.3781 15.6697 9.42536 -0.437308
621 207 2 -1.94589 0.701673 -10.9061 -3.86982 2.62116 -3.13835
619 207 1 -2.64833 0.671766 -10.1595 17.9066 -11.1618 19.5032
620 207 2 -3.56697 0.947668 -10.4644 -12.6946 6.96345 -17.072
68 23 2 -5.90172 3.34382 -9.89996 -19.6635 -5.65126 -17.2621
74 25 2 -5.99701 2.67012 -16.2234 1.48307 -10.7304 -14.233
322 108 1 5.22175 1.40915 -13.9014 13.4697 15.6787 -4.55036
194 65 2 7.11228 0.160769 -14.0466 -16.7845 -7.95007 -1.08124
324 108 2 5.37943 1.30963 -12.8979 -1.75853 -19.2133 13.4033
323 108 2 5.09017 2.42077 -13.8824 -6.24827 -2.79915 -16.2974
474 158 2 5.28059 0.678991 -15.6545 0.427951 -1.02444 3.85337
198 66 2 2.24097 7.19093 -13.5 4.79525 9.77163 13.1727
413 138 2 0.270731 6.85461 -11.8855 26.6595 -2.35856 -12.1095
471 157 2 6.0279 4.93334 -14.092 6.80904 -4.31632 10.5481
227 76 2 0.408946 0.0799879 -11.6856 -11.9904 -5.50783 -2.94709
382 128 1 5.95058 1.15506 -11.2733 -14.3796 2.70773 1.46642
383 128 2 6.35421 2.07867 -11.0677 11.4581 -5.39528 -1.44451
421 141 1 7.1779 6.45538 -9.98945 32.8022 4.31923 -12.9421
423 141 2 7.08085 6.87574 -10.9211 -15.4198 -1.01017 2.82314
430 144 1 0.813916 2.54353 -13.2705 -10.786 15.4243 0.369131
431 144 2 0.283641 2.13156 -14.0279 0.945799 -10.5809 -11.6266
639 213 2 3.65256 2.88343 -11.8657 -1.1961 -1.6383 13.4053
638 213 2 3.20003 1.37845 -11.007 7.22842 15.2922 -1.66805
432 144 2 1.73136 2.11213 -13.1398 5.83922 0.958291 5.38662
540 180 2 3.06618 5.52546 -12.9489 -6.83571 6.34208 -0.766546
538 180 1 3.72202 4.92114 -12.4813 -5.12296 -22.0061 -1.17737
539 180 2 4.59514 5.37028 -12.3031 17.0041 10.634 5.58305
469 157 1 6.79494 4.87326 -13.4061 -4.33724 12.4754 -9.84159
334 112 1 4.92549 3.25417 -16.2678 -24.4212 3.99296 -1.73329
470 157 2 7.1592 5.84623 -13.2832 -10.9842 -8.95868 7.74974
637 213 1 3.1108 2.01581 -11.8058 -11.2173 -11.4784 -12.4309
412 138 1 1.2059 6.48449 -12.1671 -32.1812 2.5041 17.8907
414 138 2 1.34279 5.81891 -11.3954 8.46804 -1.77113 -8.15489
384 128 2 6.61335 0.382724 -11.2753 10.7486 3.26958 4.65213
162 54 2 0.654373 4.48559 -14.4181 11.3794 5.53313 8.63379
161 54 2 1.29852 5.77446 -15.5235 -10.6117 -17.677 18.0334
160 54 1 0.696446 4.96047 -15.3134 0.339595 11.693 -29.3357
222 74 2 0.7308 1.77115 -16.1493 -8.32708 -7.74607 -2.91347
624 208 2 -3.26438 -7.23599 -9.42125 -1.46265 -12.5882 4.6212
281 94 2 -5.94953 -5.43867 -9.37846 3.34797 4.58975 7.4963
554 185 2 -6.76929 -6.87723 -7.81801 14.8067 7.25729 0.834674
555 185 2 -6.05862 -5.53092 -7.17099 7.11106 -13.1066 -10.2303
553 185 1 -5.94329 -6.25194 -7.91108 -27.9607 1.62099 22.1942
171 57 2 -1.71035 -1.86309 -8.08319 5.60765 9.91156 8.03787
123 41 2 -2.87037 -5.39892 -6.18776 5.53329 -7.87053 -1.10133
121 41 1 -3.02117 -4.41432 -5.9843 -19.212 1.57363 -1.33687
122 41 2 -3.32073 -3.89348 -6.81903 10.0128 -1.9127 1.38231
269 90 2 -4.78462 -4.7715 -5.25955 0.199611 3.12657 0.85951
169 57 1 -2.59716 -2.23441 -7.73977 -6.59805 -8.26671 1.8889
87 29 2 -4.15647 -1.18527 -6.98313 9.97674 -3.37104 8.08064
180 60 2 -5.24205 -1.51391 -4.93443 -3.63514 -7.97529 -3.35387
178 60 1 -5.71162 -2.14136 -4.25513 1.17137 7.45421 0.611367
85 29 1 -4.53696 -0.628256 -6.20824 -5.31221 3.75742 -12.6269
170 57 2 -3.06167 -2.49772 -8.61025 -11.6468 1.77374 -10.7041
268 90 1 -5.80377 -4.80017 -5.15236 -0.0557344 -4.01259 -0.545418
152 51 2 -2.72858 -3.0677 -5.16015 9.23016 -5.44806 8.06962
153 51 2 -2.65312 -1.45472 -4.96703 -1.44388 2.47332 -0.969271
151 51 1 -2.3417 -2.32229 -4.53987 -7.391 9.13987 -2.55886
86 29 2 -5.25993 -0.054652 -6.68431 7.15977 -5.08932 8.38708
179 60 2 -5.70936 -1.61741 -3.37604 2.43337 -4.51105 3.33437
270 90 2 -6.10333 -3.8841 -4.77918 5.83046 -1.58069 -1.92318
525 175 2 -0.914043 -2.58785 -3.99765 3.27345 3.24642 10.4402
351 117 2 -0.680914 -7.28208 -5.7856 12.7667 7.32 23.395
463 155 1 -0.811391 -0.38475 -8.55898 -11.1678 5.52526 -10.1488
465 155 2 -1.64714 -0.00245563 -9.07731 16.0713 -9.1417 1.67206
523 175 1 -0.0169904 -2.91112 -3.56276 21.2569 -3.00486 -2.02421
116 39 2 -5.78171 -6.72606 -4.61022 -3.83776 13.6634 -12.3278
308 103 2 0.17463 -1.41779 -9.38089 -0.496723 -8.2797 0.892243
258 86 2 3.0381 -0.135926 -9.18867 -8.09324 -5.9471 2.21339
503 168 2 4.27013 -2.63017 -8.94696 1.86728 10.6388 3.47755
83 28 2 0.817279 -4.50229 -7.60557 -4.96076 -12.2574 -25.3325
82 28 1 0.82516 -4.67915 -8.65146 -12.7473 11.3062 34.3271
84 28 2 0.584344 -3.79531 -9.11508 2.65408 6.27889 -2.05747
363 121 2 0.800454 -1.0313 -5.85143 -4.12735 -5.067 6.62733
361 121 1 1.53036 -0.731316 -6.48125 -3.03314 14.3792 -5.08298
257 86 2 1.63566 -0.839397 -9.78368 -0.732011 -12.2832 -1.26642
99 33 2 3.1095 -0.610833 -7.05865 -10.191 -8.26489 0.595155
235 79 1 3.04509 -5.7888 -9.1119 35.0862 -16.9818 19.3552
362 121 2 1.06968 -0.139147 -7.18675 7.12009 -9.50547 5.18846
236 79 2 2.12369 -5.39088 -8.84878 -10.0106 5.2931 -12.931
450 150 2 4.74768 -5.03661 -5.16463 -3.91222 2.1952 3.31508
448 150 1 5.04965 -4.53946 -4.30982 13.7263 -7.43416 0.710532
449 150 2 4.55482 -3.66745 -4.31439 -5.79947 13.8351 2.28425
349 117 1 0.0471379 -7.05619 -5.06938 -9.34609 -2.12995 -25.1746
98 33 2 4.76107 -0.426245 -7.0422 -1.88485 -4.34673 0.407162
97 33 1 3.96955 -0.824951 -7.5738 9.86334 -0.22361 -11.4602
599 200 2 3.63327 -5.49709 -7.38059 0.0516954 -7.50932 -6.60404
598 200 1 3.57309 -5.34025 -6.37425 14.6905 -1.35398 -6.84447
600 200 2 2.80863 -4.68999 -6.26374 -15.6621 1.39035 9.08907
209 70 2 4.79962 -7.23874 -4.82391 1.73114 2.94356 7.95837
446 149 2 3.25635 -1.18773 -4.77823 8.23633 5.18899 -7.17353
447 149 2 4.91533 -0.631473 -4.83927 -8.81363 0.273748 -11.5081
644 215 2 0.72036 -5.60913 -5.29764 -7.7244 -10.3655 -9.4334
643 215 1 0.803071 -4.71341 -5.80781 8.73415 40.0336 5.51956
445 149 1 4.20694 -1.24116 -4.39858 1.09047 -7.71843 12.5856
645 215 2 0.513099 -3.97443 -5.14093 2.01123 -9.86618 -7.32617
594 198 2 -3.37755 6.63222 -5.97941 -9.76876 -1.21577 4.65528
593 198 2 -2.43959 7.33083 -4.75768 -5.49678 3.99707 10.4674
592 198 1 -2.5596 7.18887 -5.77285 12.2496 -1.27065 -19.8451
164 55 2 -6.22516 0.129903 -9.21703 4.18423 -10.1602 -32.0735
231 77 2 -6.7713 0.0278385 -3.62592 5.93102 0.719061 3.24328
117 39 2 -5.80912 6.44803 -5.36004 9.2086 15.0992 12.2493
299 100 2 -1.47777 5.84212 -6.75873 -10.6058 14.9986 7.76611
298 100 1 -1.1783 5.06443 -7.32223 27.4392 -36.0306 0.513687
13 5 1 -0.606074 1.45435 -6.5784 -20.2477 21.6265 8.8388
300 100 2 -0.452497 4.55538 -6.76396 -17.4531 15.1793 -4.83795
14 5 2 -1.37419 1.98688 -6.11438 14.5512 -19.5264 -4.07073
254 85 2 -4.01566 2.5163 -4.65789 32.98 -0.847876 4.82386
570 190 2 -2.79984 2.03981 -8.71283 -1.30236 3.84428 -8.75249
568 190 1 -3.11792 3.01444 -8.68677 30.628 21.9869 22.7888
67 23 1 -5.6829 3.91545 -9.09628 12.9111 9.94964 18.5217
569 190 2 -2.31746 3.61951 -8.34559 -31.2644 -16.5267 -11.6999
69 23 2 -4.67662 3.74342 -8.97928 4.95226 1.00241 8.59329
478 160 1 -6.12867 5.06232 -6.34838 -6.64367 8.66311 -30.9206
479 160 2 -6.10364 4.87931 -7.38061 5.20484 -0.31861 18.8323
480 160 2 -5.96613 4.19455 -5.86571 5.88865 -15.5025 5.94933
561 187 2 -3.07564 0.916713 -4.67484 0.635233 -5.02552 3.39575
253 85 1 -4.98654 2.55522 -4.86827 -35.4089 5.90949 0.993548
255 85 2 -5.43814 3.10533 -4.13164 -1.2057 3.20927 -0.458624
559 187 1 -2.42405 1.48797 -4.1417 -3.26081 6.52654 -26.5812
464 155 2 -0.600646 0.324909 -7.8486 -4.0452 4.35764 7.7116
135 45 2 -5.359 1.57072 -7.73178 -16.0892 5.07722 3.049
133 45 1 -6.071 0.846687 -7.89743 36.1687 -13.3274 -5.60276
91 31 1 -6.78353 4.73492 -3.40266 21.7658 16.383 -24.2165
92 31 2 -6.31354 5.5967 -3.78302 -10.9073 -21.1036 10.4686
229 77 1 -6.83575 0.569278 -4.48427 1.86013 15.6999 -7.22861
80 27 2 -0.0244661 7.12533 -9.75291 3.83017 -15.9784 9.88367
230 77 2 -6.07341 1.2785 -4.56263 -7.61521 -10.7802 0.414968
134 45 2 -6.92484 0.875569 -7.37308 -19.6666 17.0767 9.15727
115 39 1 -5.47868 7.02774 -4.54239 -16.6173 -26.0206 -22.2215
312 104 2 -0.0633242 1.38749 -4.3188 7.96806 2.96346 18.1801
256 86 1 2.06771 0.034801 -9.49357 16.8421 22.0791 3.22111
20 7 2 6.70049 6.50454 -8.25993 -0.882563 5.34087 -2.15533
90 30 2 6.45609 4.71203 -9.61757 -11.1207 3.45853 1.03694
350 117 2 0.0246773 7.00258 -4.29589 -1.88956 -8.01466 7.1119
601 201 1 5.67768 0.401796 -6.00041 20.3401 -5.5099 21.0674
602 201 2 6.63903 0.506813 -5.57953 -18.1529 -3.31374 -0.286932
603 201 2 5.571 1.06905 -6.77944 8.14617 8.61534 -9.53737
208 70 1 5.13499 6.83418 -4.1072 2.07471 10.4126 1.84476
15 5 2 0.110679 2.16248 -6.74669 10.8021 0.0159064 -4.09785
366 122 2 0.00458738 4.994 -8.71193 -13.4849 1.47873 5.02924
21 7 2 6.91525 5.87604 -6.74222 -2.88567 20.5729 -5.04011
19 7 1 6.56406 6.71394 -7.25656 6.5163 -20.9594 -1.19953
35 12 2 0.317454 4.82703 -4.02608 -4.45032 7.86832 4.19522
365 122 2 1.42034 5.60763 -9.12774 9.98533 -0.727209 0.204337
364 122 1 0.526313 5.33758 -9.51859 8.26358 0.380115 -3.91093
10 4 1 1.7316 2.71335 -7.64232 10.2438 -33.4932 4.43928
11 4 2 2.51717 2.59299 -6.96977 -1.72997 2.51697 -2.58277
12 4 2 1.7597 1.81789 -8.16749 -4.06195 20.2419 -3.26321
53 18 2 5.41036 5.484 -4.75868 -14.3318 15.472 6.43491
36 12 2 1.19884 4.57232 -5.4015 -6.46911 8.07983 -3.37924
54 18 2 6.43509 4.27882 -4.57212 -10.0817 -1.86306 -2.87951
52 18 1 5.47004 4.46599 -4.89725 23.1115 -36.2728 -2.33317
283 95 1 5.97707 1.84791 -8.20301 -9.76409 -8.7029 0.121216
284 95 2 5.64881 2.8174 -8.29955 5.4374 6.61624 -4.74128
285 95 2 5.82497 1.45839 -9.13511 3.62057 -3.05156 0.817138
34 12 1 0.30666 4.34133 -4.92243 3.52457 -12.9432 -1.2691
249 83 2 2.82331 5.8045 -7.0861 -6.10822 -2.50845 9.23699
247 83 1 2.22154 5.19634 -6.49865 18.84 8.69392 -12.2862
248 83 2 2.45562 4.24858 -6.79463 -5.25675 -2.24004 -2.89327
210 70 2 5.66596 7.31216 -3.35613 -4.1975 8.76551 -6.09503
89 30 2 4.92517 4.90279 -8.84313 6.87133 1.6869 -11.2384
88 30 1 5.59261 4.24734 -9.29479 -2.27235 -1.39311 7.96512
379 127 1 4.09386 6.31876 -8.30013 -12.9351 24.8396 -9.72592
380 127 2 4.87478 6.61808 -7.71057 9.33871 -3.91456 7.68087
381 127 2 3.86103 7.20417 -8.80358 -4.60914 -16.7042 5.78571
557 186 2 4.45469 3.28299 -5.64852 -4.23353 -3.84924 -3.94571
558 186 2 4.18663 1.67794 -5.4491 5.42695 -14.2018 4.75828
311 104 2 1.05998 2.39816 -3.62408 1.81798 6.32885 -0.501852
310 104 1 0.611398 1.49684 -3.53725 -8.7306 -15.2509 -14.192
168 56 2 4.10774 4.0393 -3.67028 -0.891211 10.2326 -11.8304
556 186 1 3.86876 2.48126 -5.96352 -7.82841 26.7095 -3.01751
39 13 2 -2.19443 -6.03502 -2.75337 8.52847 7.76703 3.04983
37 13 1 -2.44753 -6.93575 -3.14157 -15.6789 -16.1331 13.411
260 87 2 -2.2999 -2.25209 -1.07436 2.29148 4.9984 9.15274
259 87 1 -3.03387 -2.61025 -1.70367 -6.10735 -5.24817 -8.76031
261 87 2 -2.57112 -2.58048 -2.62033 -11.2855 -3.74568 -2.69463
321 107 2 -4.34207 -3.73037 2.62536 -0.086619 -0.171281 9.04174
320 107 2 -3.82928 -3.15605 1.15675 1.35287 5.21404 11.3038
319 107 1 -3.90523 -2.93792 2.15778 -0.234001 -1.3082 -12.8258
648 216 2 -1.03498 -0.819228 0.484903 -8.49691 -5.96801 0.108633
374 125 2 -4.69294 -5.75729 -1.40688 5.34759 4.11789 -3.19285
375 125 2 -3.97067 -4.21015 -1.0572 -2.88054 -6.75938 -7.0029
373 125 1 -4.51296 -5.02061 -0.709008 -4.00539 0.0456331 9.02002
367 123 1 -5.7241 -0.746049 -1.79876 -27.2188 -4.13428 -27.1537
347 116 2 -3.79102 -5.90376 2.42747 7.89131 -4.47168 -11.1993
368 123 2 -4.86756 -1.22915 -1.5424 11.3263 -1.313 5.76289
646 216 1 -1.16267 -1.3532 -0.380793 8.70205 14.1261 8.12716
506 169 2 -6.81503 -2.23366 -1.79705 -15.6425 -18.6238 4.64361
346 116 1 -3.32389 -6.17496 1.54604 -20.2908 6.03276 7.16787
573 191 2 -0.697286 -6.22509 -0.378385 -12.723 0.500796 3.11325
647 216 2 -0.305409 -1.20955 -0.921181 5.21249 -4.75406 -3.08292
302 101 2 -7.31382 -6.54376 0.715886 10.8313 -8.87519 -3.17908
159 53 2 -1.51486 -5.51506 2.85286 -8.42943 -2.87878 -1.15398
157 53 1 -0.901018 -4.79682 3.21704 5.59853 12.1209 -1.39034
158 53 2 -0.0417362 -4.84116 2.6146 -4.91144 -4.06304 13.31
297 99 2 -0.488449 -4.5284 -2.76646 -11.4397 -0.0745682 6.16383
295 99 1 -0.693151 -4.87933 -1.81625 15.1102 -4.23203 -6.72983
369 123 2 -5.96137 -0.0771197 -1.02896 18.2956 -14.1955 -2.72508
419 140 2 -5.97892 -0.111362 1.20143 -9.79834 -3.06311 12.6272
572 191 2 -1.93861 -6.6472 0.759929 10.5511 7.2243 -1.41671
571 191 1 -0.92842 -6.73414 0.493074 -0.473182 -7.43738 -4.43378
301 101 1 -7.07969 -5.55739 0.567145 -28.8573 2.25206 9.52883
303 101 2 -6.24011 -5.36417 0.0509737 23.558 -0.72798 -11.9812
348 116 2 -3.98177 -5.96102 0.769939 11.8555 1.8571 4.90454
6 2 2 -0.25667 -2.64468 3.02279 -10.333 -13.9604 -4.96582
51 17 2 1.77428 -3.02738 -1.14951 5.10076 -9.52624 3.47406
17 6 2 5.28013 -4.87852 2.5505 5.1005 5.27874 -3.35486
575 192 2 6.638 -0.341294 2.80394 6.13949 -16.8925 -0.0604838
505 169 1 7.16395 -2.97163 -1.73351 4.72684 21.4043 -21.9814
62 21 2 6.51987 -5.37137 -2.95045 -5.18928 5.39103 -3.15886
63 21 2 6.70119 -6.01786 -1.41081 4.33876 9.93689 11.7243
61 21 1 6.5167 -6.21332 -2.37957 -0.177381 -19.5332 -7.35687
96 32 2 6.2073 -2.75697 -0.30152 -8.02373 -0.762402 -3.00973
296 99 2 0.153389 -4.50161 -1.34894 -5.19467 -3.7155 6.65693
524 175 2 0.414752 -2.32301 -2.81335 -14.4786 -2.44781 -15.6242
507 169 2 6.70843 -3.06112 -2.66159 11.0235 -1.70711 16.9468
95 32 2 4.57628 -3.03917 0.15439 0.301195 -10.1857 -2.91154
94 32 1 5.36532 -2.39009 0.197233 2.57566 -3.00222 -0.456064
549 183 2 4.16741 -1.4078 -2.76336 -4.44374 1.02233 -20.8953
548 183 2 4.69653 -1.83499 -1.27558 -17.0521 3.04378 1.72668
547 183 1 3.84359 -1.57442 -1.81018 20.8181 -1.12669 19.4436
329 110 2 3.18167 -1.65529 1.59873 -5.27699 0.730714 3.14224
499 167 1 1.30696 -1.16924 -1.78808 -16.3912 21.2626 -12.3762
500 167 2 2.34497 -1.1958 -1.72427 3.90859 -8.42049 1.61796
56 19 2 4.03862 -5.3451 0.915319 -10.1386 16.4605 5.73802
55 19 1 3.88655 -5.17281 -0.0953307 24.6469 -39.1133 13.21
57 19 2 4.30055 -6.08254 -0.375866 -12.435 23.9321 -12.981
4 2 1 0.255979 -1.78641 3.12731 11.5318 6.26405 2.58093
232 78 1 6.42325 -3.86073 2.14537 9.26488 -13.8143 35.3817
233 78 2 6.95735 -4.51214 1.54542 4.63683 0.252299 -7.71067
16 6 1 4.50701 -5.56328 2.58823 -5.442 -9.03568 13.7175
501 167 2 1.12851 -0.290708 -2.31356 -2.79892 -8.77126 6.89252
49 17 1 1.63583 -3.9953 -0.817303 -23.2636 10.8956 0.0627835
50 17 2 2.50381 -4.51216 -0.623505 16.7057 1.89616 -1.37437
440 147 2 4.63334 -7.18786 2.70173 3.41578 -14.2498 -4.48716
332 111 2 5.6022 -0.94867 0.912975 -9.81617 -25.4286 -13.4287
330 110 2 1.89692 -2.19745 2.58359 6.3544 6.04113 -0.671708
328 110 1 2.92077 -2.18859 2.42288 -1.41911 -5.25805 -0.277269
486 162 2 0.273412 -5.94434 1.30909 1.67712 -7.55547 -4.21832
484 162 1 1.06147 -5.39392 1.6799 12.0697 22.262 -24.4807
331 111 1 6.04877 -0.11022 1.24426 5.06515 54.6451 17.395
485 162 2 1.39039 -4.74956 0.92509 -4.8605 -14.8615 16.0227
234 78 2 5.93957 -3.15508 1.62203 -5.69351 17.7865 -18.1944
38 13 2 -3.05004 7.29525 -2.45134 7.51707 8.52628 -16.3974
93 31 2 -7.28933 4.95781 -2.54622 -8.07329 -0.017699 8.03356
341 114 2 -5.30804 7.26569 -3.06266 8.68358 -6.62557 3.55034
340 114 1 -5.05975 7.2004 -2.04962 5.19742 12.2773 14.4344
342 114 2 -5.73172 6.62064 -1.56994 -4.08974 -3.35539 4.17582
563 188 2 -2.05247 0.773258 2.9429 -3.50295 -3.89467 11.3559
560 187 2 -2.6937 1.5159 -3.1341 3.37991 -5.93523 1.8807
562 188 1 -2.30266 0.592769 1.98001 25.3377 12.0468 -14.7722
418 140 1 -5.43093 0.330856 0.485409 2.17073 0.124487 -1.30739
420 140 2 -5.46923 1.34426 0.532982 6.71496 11.956 9.67139
564 188 2 -3.25614 0.306641 1.83882 -15.22 -4.86712 0.904468
287 96 2 -3.91425 3.43562 0.725366 -5.11938 6.0135 11.3784
545 182 2 -6.53405 5.25415 2.04247 -0.492294 14.0577 -1.6662
372 124 2 -0.638328 4.60566 -0.405511 -2.39272 -8.6518 -3.58177
565 189 1 -2.99998 1.38798 -1.67198 -2.25357 3.37844 8.57314
566 189 2 -2.69661 0.530493 -1.20258 -0.679079 4.52514 3.27998
370 124 1 -0.794095 5.43203 -0.977876 -5.13579 -13.7596 25.8817
544 182 1 -6.21045 4.62172 2.76994 0.908907 -36.0241 12.9085
371 124 2 -1.13816 6.12333 -0.321756 -3.67251 13.4272 1.62937
286 96 1 -4.51212 2.85345 1.31219 0.466293 -17.8316 -7.58677
288 96 2 -5.00399 3.27543 2.10218 0.402439 16.7445 -5.74369
567 189 2 -2.64738 2.23051 -1.21149 2.30571 -7.43468 4.32534
353 118 2 -1.54746 2.2004 1.32966 -3.45885 -3.63129 -6.21437
352 118 1 -1.12828 2.91521 0.717569 3.71543 16.8443 17.5024
354 118 2 -1.01172 3.79683 1.28671 -4.73862 -13.0631 -8.13233
613 205 1 -0.674853 5.22352 2.01934 13.0322 -14.6639 19.7407
615 205 2 -0.274435 5.01614 2.97637 -11.8188 10.9846 -18.0778
614 205 2 -0.387951 6.16069 1.74548 -1.35952 5.44206 1.20866
634 212 1 0.569722 6.31469 -2.85359 25.8888 -5.75651 -21.454
536 179 2 5.98433 1.16801 -1.02236 -9.85527 12.721 2.48733
636 212 2 0.13505 6.00166 -1.94853 -6.81168 7.032 -8.72023
635 212 2 1.01951 7.23223 -2.85872 -4.50064 -1.73022 10.4764
399 133 2 1.64669 3.42534 -0.622602 -6.17344 13.4575 -21.0182
535 179 1 5.62996 2.05976 -0.647539 12.1761 -8.09227 0.368686
306 102 2 5.39533 4.61748 -1.9289 0.20677 -1.84685 5.73566
305 102 2 6.5122 3.85785 -0.893965 -7.20834 -14.7381 4.01092
304 102 1 6.19979 4.73341 -1.30471 4.33674 20.3915 -6.45899
167 56 2 2.63505 4.62337 -2.97473 5.56848 4.80811 -8.17339
110 37 2 6.35726 6.49208 1.49299 -2.13361 -8.68069 -5.69717
109 37 1 7.08377 6.35416 0.767794 4.95475 14.4506 12.5495
111 37 2 6.73824 5.82433 -0.0383807 -8.70736 -5.66964 -2.06262
439 147 1 4.856 6.51145 2.71316 0.41842 10.6492 4.1911
537 179 2 4.82516 2.46001 -1.12203 -5.29576 -6.01535 -3.92963
397 133 1 1.54838 2.84883 0.179713 8.27341 -23.6821 37.2515
166 56 1 3.36647 3.91503 -2.98322 -1.52004 -10.9474 19.1528
398 133 2 0.5939 2.69043 0.547777 -4.21735 11.0397 -19.564
101 34 2 1.88677 1.87183 1.54918 6.13551 7.86787 -16.075
102 34 2 1.07126 0.703326 2.33586 -5.82294 -9.89249 3.03483
100 34 1 1.93595 1.22319 2.33014 3.3442 -1.17193 16.1077
333 111 2 5.4711 0.742315 1.08478 13.1036 -17.756 -0.428237
588 196 2 2.60699 3.32186 3.10884 1.91817 -1.35922 -0.82521
604 202 1 -3.29186 -0.998021 4.43529 4.99103 -0.513352 0.456821
605 202 2 -4.21654 -0.540255 4.47543 8.80786 -7.16652 -1.35965
606 202 2 -3.22122 -1.77812 3.7639 -10.3677 4.7526 0.384241
410 137 2 -0.926097 -2.98204 5.79825 -4.06344 -0.779206 1.53334
409 137 1 -1.3254 -3.91927 5.71426 13.1074 -7.25764 -40.3207
496 166 1 -4.85388 -4.82939 4.26157 -7.47817 -17.1422 41.6817
497 166 2 -5.62755 -4.19796 4.56055 6.35208 0.783602 -11.0202
579 193 2 -1.70561 -0.668097 5.33275 -19.1195 -15.9586 -1.47823
411 137 2 -1.19021 -4.25456 4.70314 -6.05469 8.61889 34.8349
498 166 2 -4.61071 -5.22824 5.21008 7.6289 9.45237 -31.741
509 170 2 -1.38125 -4.83274 7.03659 -11.4917 14.0634 0.634433
508 170 1 -1.57977 -5.14323 8.01165 16.9882 -14.0368 0.388579
3 1 2 -2.7343 -5.50144 9.56583 -3.41192 -2.22952 -11.5011
41 14 2 -3.09231 -5.46714 7.25703 11.368 -6.64262 -1.79004
42 14 2 -4.61907 -5.16673 7.4555 -15.5347 13.1996 13.4228
325 109 1 -6.65013 -3.08921 5.27101 0.517695 -8.13169 -20.8565
326 109 2 -6.45407 -2.61189 6.15367 -1.58706 12.2096 -0.308032
40 14 1 -4.01409 -5.77067 6.93124 -0.638244 -4.71745 -15.7913
510 170 2 -0.666247 -5.54018 8.25426 -6.79659 0.661976 7.63017
138 46 2 -5.60039 -2.96598 8.38329 -8.4989 -13.8953 -2.79491
137 46 2 -4.35214 -3.63511 9.11738 -4.09194 -9.12331 1.68057
136 46 1 -5.21344 -3.90715 8.63497 6.47125 17.3562 -1.12406
327 109 2 -6.69695 -2.49381 4.41427 -4.51915 -1.36464 24.3447
435 145 2 -5.92076 -0.82406 7.71186 -3.88176 -18.6151 6.42681
433 145 1 -6.49738 -1.70161 7.85164 13.7281 9.68503 -10.5626
577 193 1 -0.697438 -0.639561 5.42935 8.39895 22.342 -7.09797
591 197 2 -4.76241 -7.14776 4.08468 -0.228146 -7.15221 3.23368
48 16 2 -7.27273 -6.74433 8.12451 1.14395 -14.5971 -0.644177
47 16 2 -6.58443 -5.26332 8.10619 -0.948987 4.54218 5.92962
574 192 1 6.82118 -0.72209 3.75743 -4.77871 27.4965 -11.8112
314 105 2 3.07846 -5.27909 5.93386 0.934522 -12.0386 -4.40614
18 6 2 4.20075 -5.59364 3.58214 -8.56972 2.9252 -8.50272
313 105 1 3.47425 -5.81899 5.15357 20.0122 24.3592 -7.58341
358 120 1 1.03605 -2.58451 9.05458 1.67262 2.90891 6.85503
114 38 2 7.12485 -6.45731 4.93946 1.06845 18.2063 -7.69502
113 38 2 5.42935 -6.58719 5.46633 27.4461 2.20547 -10.4244
112 38 1 6.3649 -7.0193 5.27975 -32.815 -17.8495 20.6715
434 145 2 7.30954 -1.38415 8.13676 -13.9768 3.93073 3.49215
360 120 2 1.3003 -3.27731 9.75666 3.55718 -0.573841 -8.87337
359 120 2 1.5375 -2.72537 8.15535 -2.01919 -7.54813 2.81394
279 93 2 2.3995 -3.27738 5.91048 -2.85968 4.66045 -10.2242
277 93 1 2.48329 -3.36806 6.91016 -14.908 -1.92853 3.57663
278 93 2 3.45063 -3.51795 7.14258 25.0644 -1.33314 5.85526
150 50 2 5.63155 -3.10414 6.31012 -10.6898 6.51445 3.53923
149 50 2 6.1783 -4.33516 7.14223 -8.06968 2.57112 11.387
5 2 2 0.0785192 -1.45455 4.08667 -2.23159 6.14592 -0.448535
400 134 1 5.61315 -0.388105 8.72985 -21.9641 -38.9139 1.48403
429 143 2 3.68117 -0.720977 4.89825 -3.82329 6.2342 -6.02391
401 134 2 4.8227 -0.58082 8.08075 19.2428 5.21545 11.989
408 136 2 2.06112 -6.17045 8.88167 -3.56723 -7.87929 -0.547112
406 136 1 1.2155 -6.75466 8.95667 1.7716 16.6222 -12.8611
531 177 2 5.62715 -1.67332 4.1745 -12.5862 -5.23137 8.65765
148 50 1 5.41628 -3.64616 7.15599 15.6671 -5.67778 -16.4541
530 177 2 4.22862 -2.64815 4.15646 -9.42431 -10.176 -21.6739
529 177 1 4.76752 -1.99623 4.6911 15.2453 8.58651 18.4086
416 139 2 3.58607 -4.76679 9.76645 1.22958 -0.686502 4.46668
214 72 1 4.13604 -5.9638 8.56773 17.6198 -1.56993 13.4223
215 72 2 5.08219 -5.55856 8.48689 -9.62353 3.69972 -5.9468
315 105 2 3.35918 -6.84034 5.29004 -14.3335 -0.347978 12.9734
216 72 2 4.31904 -6.90806 8.92808 -12.9532 1.33938 -3.26807
46 16 1 7.26721 -5.77166 8.28879 -0.68917 13.8537 -6.64885
402 134 2 5.6007 -1.12262 9.47298 -1.30629 7.94655 -7.06448
546 182 2 -5.63861 5.05525 3.51677 -4.75332 18.3797 -18.0278
462 154 2 -7.00248 3.13137 3.45019 -0.641742 13.1114 -7.49521
442 148 1 -4.78772 1.26885 4.87994 -7.25668 5.79005 1.13374
444 148 2 -3.87719 1.5759 4.56993 9.82348 1.51374 -0.0595841
460 154 1 -7.25967 2.25523 3.89755 -0.465207 -11.0729 8.98576
26 9 2 -1.6158 3.3931 7.72437 -4.20277 -8.20413 -13.3798
443 148 2 -5.49053 1.59069 4.20183 -8.58566 -3.738 6.37993
578 193 2 -0.547592 0.353963 5.1938 7.91322 -9.27418 4.16937
589 197 1 -4.93332 6.56502 4.0763 -1.20032 2.88018 8.10814
25 9 1 -2.13221 3.43663 6.81105 0.100951 11.4179 10.6086
27 9 2 -2.90751 4.09206 6.96958 8.54759 -7.33616 -9.52407
211 71 1 -4.97583 4.46396 6.47173 13.1378 1.6002 20.7191
213 71 2 -5.27399 3.65557 5.95582 -3.22588 -13.5675 -7.88829
403 135 1 -2.59 0.694372 9.24868 -10.2606 -29.597 27.9243
590 197 2 -4.97501 6.15263 5.01148 7.01225 6.41892 1.46949
212 71 2 -4.51309 4.116 7.35419 -20.5062 12.6515 -12.8186
218 73 2 -0.013448 2.6703 9.03517 -2.64417 3.66138 2.68339
512 171 2 -1.38186 2.45575 5.55889 -11.7929 0.737701 -0.392528
404 135 2 -1.80951 1.34433 9.29953 7.94387 0.791681 -1.53987
217 73 1 -0.965542 3.04884 9.1042 5.62309 -5.65972 -0.862946
511 171 1 -0.990167 2.18922 4.64288 5.54382 -5.01186 10.5234
238 80 1 -4.84059 0.287297 7.75081 -34.1928 8.90789 -13.7737
240 80 2 -3.92466 0.0942373 8.14242 20.8376 8.68524 1.54701
513 171 2 -0.376372 2.97913 4.4687 2.05323 6.14778 -10.1636
239 80 2 -4.85614 0.75427 6.82687 11.7991 -5.25976 5.36828