ITEM: TIMESTEP
43000
ITEM: NUMBER OF ATOMS
648
ITEM: BOX BOUNDS pp pp pp
-7.2439555816716492e+00 7.2439555816716492e+00
-7.2439555816716492e+00 7.2439555816716492e+00
-1.6097679070381744e+01 1.6097679070381744e+01
ITEM: ATOMS id mol type x y z fx fy fz
369 123 2 -0.80281 -5.62683 -12.4867 1.0013 4.03351 3.41577
561 187 2 -2.27851 -4.81482 -10.5478 -2.11148 11.8416 -20.2745
331 111 1 -5.95283 -4.32365 -14.4055 -16.5985 -0.257523 11.2867
333 111 2 -5.03379 -3.90091 -14.4861 11.4487 -2.86756 -8.35262
559 187 1 -2.19256 -4.47205 -11.5343 7.60328 -16.5356 2.60918
28 10 1 -6.92569 -1.97902 -13.019 9.93243 -0.307075 4.90002
385 129 1 -6.93024 -6.37532 -12.2598 -10.0795 30.7127 20.9672
387 129 2 -7.1079 -5.41567 -12.6215 5.24927 -24.0856 -0.745021
560 187 2 -2.76876 -3.67562 -11.8184 -4.76878 0.834522 10.1671
200 67 2 -2.74685 -2.81088 -13.7809 -9.62919 15.6114 6.48923
391 131 1 -5.07732 -0.0400566 -12.5352 19.7966 13.0147 -21.869
29 10 2 -6.61155 -2.91045 -13.3463 -10.6954 4.31706 -7.79116
357 119 2 -3.61328 -0.896288 -12.3176 3.37704 -2.64136 8.13576
355 119 1 -2.96817 -1.69461 -12.1924 -7.28747 -13.069 -22.5462
356 119 2 -2.3451 -1.63596 -11.3951 6.94118 7.68173 15.2136
377 126 2 -2.13785 -2.20548 -15.8174 -17.5656 -3.74419 1.31334
489 163 2 -4.69275 -1.32921 -15.177 17.8076 -15.1951 15.9637
199 67 1 -3.25147 -3.09207 -14.627 30.4849 -46.3717 -9.72977
332 111 2 -6.13814 -5.11736 -15.0312 3.05484 7.71512 4.59209
386 129 2 -6.44198 -6.94369 -12.9337 4.58027 -6.72429 -15.8989
378 126 2 -0.630296 -1.85754 -15.5193 -0.48471 5.18577 -5.23436
198 66 2 -6.15665 -0.919188 -10.0603 15.9932 14.9724 8.67453
196 66 1 -6.90768 -1.51979 -10.3304 -18.1397 -12.1128 -6.02598
392 131 2 -5.63586 -0.874057 -12.7588 -11.3941 -0.244717 -5.49793
146 49 2 -4.24342 -7.1431 -10.3014 -6.73246 -13.8209 -12.6617
197 66 2 -6.79454 -1.69324 -11.3441 -5.86068 -0.677861 -0.01261
274 92 1 -1.31918 -2.27776 -10.0879 -0.397189 35.2493 0.953342
275 92 2 -1.17129 -3.14832 -10.5775 1.59111 -20.0022 -2.80779
201 67 2 -2.82918 -4.05814 -14.796 -29.782 32.789 -4.00251
487 163 1 -5.33943 -0.881692 -15.7814 -6.67973 28.1863 -28.5441
447 149 2 -4.44112 -5.95957 -16.085 4.12245 -5.61364 -5.81498
446 149 2 -2.99943 -6.6461 -15.7738 -6.98667 21.1348 0.751889
445 149 1 -3.48093 -5.73141 -15.7642 46.4045 -3.37219 24.9011
368 123 2 0.0865988 -6.99484 -12.8668 -4.07096 7.97502 3.85191
367 123 1 0.146066 -5.99859 -12.6096 -0.274369 -17.8261 -5.54881
347 116 2 1.0207 -5.1581 -11.1923 -2.05214 -1.22397 -9.36587
346 116 1 0.87313 -4.5419 -10.3951 3.47189 -4.2709 1.11476
585 195 2 0.964809 -2.68019 -14.2771 -16.8746 22.592 -3.10393
583 195 1 0.434654 -1.78638 -14.4237 19.5493 -42.5624 -0.705275
523 175 1 1.86395 -2.5451 -12.1512 34.9731 -24.3301 -23.73
525 175 2 1.90553 -3.31865 -11.4895 -7.43038 -4.40729 9.58871
336 112 2 2.42755 -5.41633 -15.3346 10.7815 11.2063 -1.86036
644 215 2 1.77161 -6.39875 -13.1495 -15.9807 11.7882 11.8041
173 58 2 4.78452 -2.21974 -14.492 0.462165 -3.83621 -30.3058
284 95 2 6.2517 -6.82158 -15.7856 -1.11554 8.07812 6.06217
283 95 1 6.90488 -7.01752 -14.9938 1.3257 -31.8313 5.02976
556 186 1 0.825114 -0.528995 -10.2614 -21.6518 -25.2037 -1.2202
174 58 2 4.26166 -3.4063 -15.5572 4.78132 12.2908 -2.22936
172 58 1 4.75947 -2.48996 -15.5266 -14.0579 -19.8661 11.6921
115 39 1 4.86982 -1.44924 -13.2325 23.0241 -10.3624 -11.0638
117 39 2 4.25591 -1.39492 -12.4531 -18.6001 9.64408 21.3117
643 215 1 2.6379 -6.57151 -13.6314 23.8329 -10.2122 -19.6513
645 215 2 3.37491 -5.89774 -13.3724 -3.17627 3.98063 2.81797
116 39 2 4.99914 -0.551311 -13.7227 -7.09418 14.0621 7.22687
334 112 1 2.754 -4.6474 -15.9422 -16.0756 -18.2347 -13.3464
584 195 2 0.986184 -1.11832 -13.8934 -1.70443 15.2532 -1.40809
81 27 2 3.59226 -3.44247 -12.7335 4.52309 -11.7076 -4.3296
80 27 2 4.96637 -4.09547 -12.0386 -14.6861 -3.6486 -13.9122
79 27 1 4.20349 -4.27442 -12.7453 -0.242432 5.7622 11.9314
30 10 2 6.586 -1.74591 -13.2891 6.02632 -10.9989 2.71098
9 3 2 1.83725 -7.17387 -9.66093 2.47261 7.22616 -20.658
602 201 2 4.06215 -6.11274 -10.0341 -1.22798 -0.784374 -1.28145
601 201 1 4.1383 -7.12378 -9.9479 21.2928 3.69586 -6.10115
348 116 2 0.0285625 -4.92968 -9.96385 -1.99643 4.83128 10.619
524 175 2 1.29077 -1.8397 -11.7842 -20.717 27.2067 19.9477
557 186 2 0.0431454 -1.18524 -10.3935 -0.36992 -9.8295 7.99437
132 44 2 7.08172 -7.0212 -10.7968 3.19699 -9.73747 9.18272
384 128 2 4.72095 -3.31313 -10.2097 11.9291 -7.14541 -8.26737
383 128 2 6.19685 -2.71489 -10.3802 7.92726 -10.3224 -9.28443
382 128 1 5.62221 -3.51966 -10.6858 -16.8369 21.9216 27.9398
430 144 1 -4.73181 5.45151 -11.2056 20.6567 -4.28128 27.7155
14 5 2 -2.54796 4.05537 -15.6468 4.54621 -1.23332 -3.43446
15 5 2 -2.35013 4.45695 -14.031 -2.46953 -3.9236 -6.92728
13 5 1 -3.03454 4.13421 -14.7457 15.2751 17.0891 0.315804
2 1 2 -6.11605 7.22712 -15.9869 4.91968 7.74863 -8.00404
318 106 2 -4.65826 0.636069 -11.1226 -4.69872 4.63044 14.3444
175 59 1 -1.00251 4.97887 -12.8375 -29.8839 8.81627 8.67715
177 59 2 -1.5807 4.98425 -11.9841 2.82766 3.26057 -11.8677
393 131 2 -4.84679 0.48572 -13.4217 -8.41089 -4.28501 25.6124
176 59 2 -0.117479 4.63938 -12.4593 18.7915 -7.84506 -0.0505404
619 207 1 -1.47167 5.44834 -9.87834 -0.922274 6.67168 -3.18208
621 207 2 -0.513799 5.80788 -10.0199 0.343777 -1.57444 5.44912
431 144 2 -4.86036 5.7571 -12.1904 -5.48595 -11.3149 -1.10593
265 89 1 -1.07331 1.72025 -12.3552 11.0751 -6.02023 19.3277
267 89 2 -1.42752 1.7686 -13.3147 0.162895 -4.54831 -11.3128
266 89 2 -0.295471 1.04314 -12.3826 -13.3748 11.8102 -2.44742
520 174 1 -5.32399 5.74719 -13.6493 -14.3891 -3.73159 -18.7009
123 41 2 -2.3256 2.72059 -11.5057 -7.67923 -0.737025 -7.91192
122 41 2 -2.2695 3.79109 -10.3206 -8.16549 14.7472 3.42443
121 41 1 -2.94301 3.33556 -10.9477 16.4709 -14.1828 3.3687
521 174 2 -5.94639 4.96302 -13.9344 14.3397 15.6575 1.87555
522 174 2 -4.55754 5.8794 -14.3079 -2.22218 -7.09738 -0.955118
316 106 1 -4.56381 1.00538 -10.1403 6.52172 2.86128 -29.4389
317 106 2 -4.04692 1.88743 -10.1924 3.48178 4.76064 -5.81418
215 72 2 -4.9956 1.8014 -15.0715 2.30089 12.082 -5.77208
214 72 1 -4.28904 1.92805 -14.3516 8.16745 -12.8955 9.50718
432 144 2 -4.06312 4.6503 -11.1249 -13.1508 11.2328 -5.51541
456 152 2 -0.93413 2.07663 -9.91698 -9.41567 12.3654 -22.6657
269 90 2 -6.06096 1.98927 -9.91629 -15.6649 -9.33231 12.4061
352 118 1 -1.67052 0.985947 -14.8609 0.0529656 10.3209 33.3453
354 118 2 -1.35615 0.8126 -15.7798 3.61441 -10.096 -33.2306
353 118 2 -2.64124 0.731301 -14.7131 -7.10982 2.46955 -6.91918
216 72 2 -3.64783 2.76952 -14.4684 -24.8219 -12.985 -3.45393
595 199 1 -7.03704 3.83638 -15.7272 -23.0495 -2.20837 30.3693
479 160 2 3.13325 3.88321 -14.2469 1.85474 -2.4008 5.17218
478 160 1 3.1471 3.00567 -13.6903 -38.0965 42.0424 20.4465
285 95 2 6.53944 6.61413 -14.5084 8.22226 19.3456 -8.69694
84 28 2 1.69084 0.287128 -11.0117 5.06958 -6.54744 1.13657
131 44 2 6.83933 5.8878 -10.4994 3.59762 -14.1977 -2.07919
222 74 2 2.91322 5.383 -15.8124 -4.63194 0.885607 3.86093
130 44 1 6.85315 6.78212 -10.031 -7.82924 20.6675 -6.07184
509 170 2 5.73777 1.77455 -14.1873 13.2206 10.0728 -6.24275
358 120 1 6.20883 3.72047 -11.4033 33.4906 13.7286 -7.32174
508 170 1 5.03465 1.17208 -13.8047 -6.65662 -12.8235 17.4139
510 170 2 4.77548 1.48646 -12.8527 2.87038 -2.49468 -12.2193
360 120 2 5.56729 3.05013 -11.0238 -19.2095 -12.992 11.1026
558 186 2 0.281732 0.303159 -9.92832 1.96777 1.98292 11.2173
82 28 1 2.43199 0.804931 -11.5346 13.7463 23.2533 -32.8724
83 28 2 2.2384 0.782118 -12.5549 1.96227 0.845739 12.0962
617 206 2 1.46755 0.699256 -15.2836 -5.34907 -12.4044 15.2068
616 206 1 1.37154 0.843247 -14.2585 12.4489 -3.50359 -8.17611
618 206 2 1.46291 1.84851 -14.1806 2.18986 15.3826 9.62353
481 161 1 1.04068 4.0211 -11.4438 2.92577 -6.18293 8.20471
516 172 2 5.97928 4.71992 -12.8734 5.34231 0.537545 -20.7535
514 172 1 5.88943 5.04788 -13.8702 -0.853058 -5.29017 34.1414
515 172 2 4.89537 5.30156 -13.921 -2.7273 -0.753496 -13.389
38 13 2 3.99798 3.17432 -9.75152 7.24782 -9.10863 -3.0872
37 13 1 4.14954 2.15601 -9.92721 13.4827 17.0541 12.7731
39 13 2 3.32825 1.75714 -10.3652 -9.29984 -12.9815 -14.209
221 74 2 3.00639 6.36649 -14.396 -2.45626 -2.38798 -5.53938
220 74 1 3.22909 5.44897 -14.8279 9.49385 6.74356 12.3001
483 161 2 1.66198 4.33724 -10.7192 2.38722 19.0466 5.92944
555 185 2 4.10811 5.58963 -9.98505 -2.75137 2.05383 8.60427
603 201 2 5.15418 7.12723 -10.064 -17.2605 5.47275 5.3543
480 160 2 3.63636 2.27826 -14.1253 27.2502 -31.6525 -22.6782
482 161 2 1.33243 3.06272 -11.5435 -1.63475 -12.278 -14.4106
597 199 2 6.8181 4.18199 -14.9629 20.0677 4.17386 -6.31372
359 120 2 7.11277 3.45727 -10.9649 -16.9934 3.64313 -7.16729
243 81 2 0.598242 1.90976 -16.0412 -7.74459 -9.87395 -6.23324
638 213 2 -5.19139 -5.72871 -9.01771 6.64224 -0.783489 -15.3204
145 49 1 -3.87431 -6.68283 -9.48011 8.19402 -2.78917 28.3955
637 213 1 -5.7637 -4.90439 -8.83123 -17.9267 26.4356 12.6675
639 213 2 -6.17165 -4.41565 -9.63916 5.52148 -14.7778 1.28911
56 19 2 -5.11974 -3.46232 -8.2337 12.5331 22.1327 9.35836
55 19 1 -4.65358 -2.55803 -7.93275 -9.9065 -6.70432 6.46869
57 19 2 -5.25798 -2.08663 -7.23778 -0.898067 -14.2549 -8.1967
366 122 2 -2.90558 -2.65539 -7.39245 18.0227 -13.1316 -3.22459
477 159 2 -3.91029 -0.74136 -7.80024 -6.13262 21.9705 4.26356
365 122 2 -1.45117 -3.16832 -6.61264 -7.05558 -0.0599187 -0.42408
67 23 1 -1.46415 -5.17938 -8.93883 2.26248 -15.0228 -12.4874
69 23 2 -1.28681 -4.47671 -8.20372 -13.6641 -1.34837 -1.40706
32 11 2 -1.88384 -3.31377 -4.61343 17.818 -9.71036 -5.06979
364 122 1 -1.90366 -2.94102 -7.52615 -17.1396 15.2189 10.912
534 178 2 -2.03638 -6.28207 -5.08009 -17.47 -0.716453 4.02786
626 209 2 -6.14861 -3.97529 -3.65763 -8.81712 14.0493 8.89732
68 23 2 -2.3502 -5.71052 -8.86638 5.70628 7.75665 5.80703
31 11 1 -1.02078 -3.68793 -5.08498 -44.6193 15.2841 -6.24704
276 92 2 -1.80256 -2.39985 -9.18202 7.18742 -9.04089 -1.18348
33 11 2 -0.359714 -4.01695 -4.41952 15.0726 -4.85425 14.6056
576 192 2 -1.11353 -0.885416 -3.93581 -13.274 5.22713 -1.16765
233 78 2 -4.31903 -3.50741 -3.70188 0.667039 -0.694878 1.10045
343 115 1 -7.11263 -2.24267 -6.31047 20.1777 5.24996 -0.661624
438 146 2 -0.265966 -2.17752 -7.67834 25.5439 -3.43801 -0.991637
195 65 2 -6.61126 -1.75404 -4.81929 -13.3936 -5.41881 9.14249
532 178 1 -2.61858 -6.80665 -4.41546 18.3995 -6.41128 -4.07986
533 178 2 -3.58109 -6.99647 -4.71282 1.55301 10.4071 -3.49953
193 65 1 -6.75146 -1.65832 -3.78675 6.84792 7.31711 10.8417
147 49 2 -4.14154 -7.21312 -8.6285 3.2799 2.14597 -9.22106
625 209 1 -6.14024 -4.68694 -4.36413 18.005 -9.61008 2.95548
627 209 2 -7.03681 -4.7237 -4.84198 -7.87353 5.49902 -12.7339
490 164 1 -5.50207 -7.16118 -3.74975 39.3673 1.40995 4.69791
308 103 2 -5.66825 -7.06513 -6.87356 -1.6103 9.42184 0.419907
491 164 2 -5.4644 -6.1551 -4.02853 -11.6891 -8.18007 4.29791
537 179 2 -5.21069 -0.690445 -3.3428 13.1972 14.3343 4.89142
232 78 1 -3.50765 -2.89649 -3.66932 9.52257 -5.05602 -13.7117
44 15 2 6.56897 -5.13659 -7.03906 2.39288 -19.323 -16.2027
43 15 1 6.30023 -4.58838 -6.24275 -23.4404 11.0765 27.5262
45 15 2 5.34842 -4.79513 -5.90086 11.5116 -2.6821 -12.0157
344 115 2 6.8448 -3.12044 -6.4394 3.25801 -8.96151 7.0042
306 102 2 2.60357 -1.16742 -9.55742 18.5792 -31.1599 6.16855
345 115 2 6.9353 -1.54972 -6.86994 -14.2165 19.9011 -16.3904
436 146 1 0.755623 -2.24079 -7.4594 -2.52778 3.32452 -8.81403
437 146 2 1.38127 -2.14361 -8.28468 -14.3864 -3.62673 12.5255
287 96 2 6.05007 -0.597898 -9.46508 -10.3305 1.85619 16.3684
286 96 1 5.3588 -0.328258 -8.7316 23.1987 -4.97553 -13.0392
304 102 1 3.2835 -1.89551 -9.20593 -12.3214 46.4163 2.10078
305 102 2 4.01127 -1.30212 -8.71581 -9.88977 -19.4563 -16.756
531 177 2 2.37197 -2.55525 -4.76988 0.714069 7.82352 -1.72624
529 177 1 1.9465 -3.36815 -5.20045 14.2661 -15.8178 33.6459
530 177 2 1.50082 -3.06299 -6.0492 -15.3976 10.406 -27.8813
351 117 2 5.43682 -7.21604 -7.10784 10.916 0.761618 -1.71646
611 204 2 1.20394 -6.87177 -4.79352 8.07252 -18.7515 -20.0656
119 40 2 2.23291 -4.88389 -4.42775 -2.69446 11.0007 -0.537666
544 182 1 3.75492 -6.68438 -6.31047 -33.8424 6.30783 -13.3864
546 182 2 2.80946 -6.9086 -6.72332 38.9897 -1.16847 7.71422
118 40 1 2.45475 -5.8622 -4.21032 -1.81681 -9.1412 14.1024
545 182 2 3.43471 -6.09335 -5.51061 6.67884 -13.9688 -1.764
194 65 2 6.72668 -1.53554 -3.57628 6.09833 -4.9525 -5.96903
575 192 2 0.327341 -1.30249 -3.32791 -11.0595 10.215 8.38846
341 114 2 3.15727 -1.3993 -3.27435 -11.1703 23.9674 -8.68385
340 114 1 2.30888 -0.810752 -3.43292 -4.2732 -4.03188 -7.82163
620 207 2 -2.07367 6.22791 -9.59372 4.19199 -6.37708 -1.91251
455 152 2 -0.428603 1.82107 -8.4201 1.33824 -13.7774 -9.46731
454 152 1 -0.564601 1.35242 -9.34579 2.99041 17.0692 39.9409
476 159 2 -3.80474 0.569109 -8.70579 -9.47774 11.5491 -12.4199
474 158 2 -2.43969 1.31552 -4.97148 5.24249 -3.52263 8.53719
475 159 1 -3.96713 0.30035 -7.73531 15.3567 -48.3193 24.7464
53 18 2 -2.99226 3.422 -4.32137 8.39434 4.79865 7.73817
52 18 1 -2.14382 2.84288 -4.18063 0.181159 -16.6108 -4.42136
473 158 2 -3.18453 0.338901 -6.03277 3.18698 -5.49137 0.698264
472 158 1 -2.69531 0.327407 -5.12563 -7.11241 8.90029 -12.4858
380 127 2 -5.27936 1.34358 -7.25336 0.725256 -24.5052 -7.48601
268 90 1 -7.02543 2.05478 -9.52803 11.1283 19.2351 16.1196
270 90 2 -7.02381 2.48189 -8.57539 5.2952 -14.7219 -23.8389
381 127 2 -4.73624 2.68828 -6.88352 13.6452 21.7122 3.01179
379 127 1 -5.6256 2.20713 -6.86183 -13.7969 10.1173 3.24918
307 103 1 -4.85842 6.81779 -6.77228 -0.452746 12.7195 -6.60809
309 103 2 -5.26311 5.91007 -6.65937 0.69112 -20.3672 1.00797
280 94 1 -3.50466 4.97176 -4.4981 -12.0815 39.8093 1.97706
282 94 2 -2.73208 5.65041 -4.3654 -5.25047 -10.919 -0.958316
281 94 2 -4.29917 5.63387 -4.46661 0.721509 -14.284 0.487196
470 157 2 -6.86526 3.00334 -6.13305 -0.146907 0.186669 8.90456
492 164 2 -6.44199 6.96672 -3.81227 -22.6279 -8.00496 -3.34778
413 138 2 -2.16217 3.27167 -7.0882 -4.28146 4.26526 5.16914
412 138 1 -3.11959 3.55362 -6.84099 -1.77387 -6.67916 3.91723
414 138 2 -3.17779 3.90992 -5.8685 3.70793 3.46949 -16.2949
501 167 2 -0.0611251 2.29258 -6.00577 -0.546293 -8.16848 17.1758
612 204 2 -0.181026 6.84789 -5.17658 5.20445 -7.98339 -4.28958
536 179 2 -3.82112 0.090215 -3.86539 10.2496 -0.500962 -6.85027
499 167 1 -0.0974842 2.75296 -6.89578 -1.99138 9.77651 -20.898
310 104 1 -0.366062 4.8016 -3.59602 -32.3102 -0.664173 -18.4694
311 104 2 -1.1041 4.14516 -3.95053 14.5587 2.55636 10.2836
8 3 2 1.46736 6.362 -8.5866 -4.40024 -22.6355 18.3931
7 3 1 1.16738 6.57078 -9.52354 1.76606 9.44879 -0.822058
553 185 1 4.08195 4.73274 -9.40935 -6.38818 -10.5988 0.136841
554 185 2 3.35989 4.82622 -8.69033 -3.62525 10.9235 2.84306
288 96 2 5.28946 0.685776 -8.81245 -5.41696 6.14307 -2.00611
588 196 2 3.65687 1.62699 -6.02166 9.25859 15.7887 -42.9018
59 20 2 2.83741 4.71531 -6.64709 -5.62916 12.8372 -10.2277
58 20 1 2.2503 5.382 -7.19689 -4.85139 -15.7654 5.22531
60 20 2 1.49885 5.73273 -6.5676 11.5831 3.48023 0.325104
469 157 1 6.96526 3.62298 -5.61011 -13.6124 11.4866 -1.37675
178 60 1 6.65192 6.10967 -4.25629 -3.143 -18.6038 -33.2708
349 117 1 6.4693 7.20056 -7.19883 -5.85519 -6.02285 -10.087
350 117 2 6.71621 6.93787 -8.17811 -5.95949 5.15789 10.1471
372 124 2 4.61594 3.75823 -7.8098 -1.21299 0.743324 -7.15491
587 196 2 4.38683 1.47306 -4.58452 22.0808 4.75491 7.15653
586 196 1 3.53133 1.3253 -5.09794 -35.8672 -21.4643 34.5293
179 60 2 6.51768 6.81146 -4.99954 -0.432436 -4.96651 5.5545
622 208 1 3.62646 5.57058 -4.64889 -2.85482 -1.32353 -12.6845
624 208 2 3.94137 6.21713 -5.39753 -6.81299 -2.55776 11.285
180 60 2 6.70064 5.19239 -4.78683 1.8656 22.3438 20.0063
610 204 1 0.812746 6.86477 -5.41479 -15.3319 20.9883 16.5763
370 124 1 4.39696 3.48003 -6.85464 22.8905 -2.30884 14.4002
371 124 2 5.30723 3.47595 -6.33784 -18.9281 2.55851 -10.0079
471 157 2 6.43201 3.12115 -4.87032 12.8326 -10.0988 -2.274
230 77 2 5.02768 2.50049 -3.22043 30.4498 -12.0192 -10.6437
548 183 2 2.46151 4.21977 -4.66845 -3.91739 -3.89155 6.52103
229 77 1 5.80259 2.02472 -3.78241 -64.0294 21.6879 0.76097
547 183 1 1.7448 3.46911 -4.69866 14.1033 -2.78694 -17.8142
549 183 2 2.26969 2.58489 -4.85022 -5.07189 9.52592 7.52589
500 167 2 0.642161 3.45978 -6.88873 -2.8962 -2.5005 -0.706525
623 208 2 4.31125 5.52075 -3.90114 8.08328 2.1938 8.83967
342 114 2 2.46574 0.106971 -3.90695 7.54128 -19.3397 6.62121
312 104 2 0.472924 4.55192 -4.14427 4.79494 -7.85322 5.21358
418 140 1 -6.43912 -2.15574 -1.02358 17.08 29.6057 4.45089
419 140 2 -6.39423 -1.98666 -2.03046 -8.72998 -9.13413 -5.75726
300 100 2 -0.132384 -0.1202 -1.68066 0.189904 2.92865 6.44247
299 100 2 -1.06835 -0.344113 -0.418915 -2.08443 4.26886 4.46101
535 179 1 -4.46562 -0.00665623 -3.07655 -28.4238 -12.2053 -4.74215
159 53 2 -2.59232 -4.07073 2.66434 -5.60094 30.2194 -7.39147
157 53 1 -2.71955 -5.00372 3.00316 -6.9471 -41.367 18.3999
566 189 2 -6.52711 -3.46318 0.202934 -19.0454 -16.9937 -3.66021
577 193 1 -2.92768 -0.791311 -0.886587 -14.9192 2.41627 33.5428
47 16 2 -3.87696 -1.64282 2.72702 8.65808 -8.24702 -9.47269
46 16 1 -3.21197 -2.41815 2.59863 -14.7289 24.5569 6.77373
48 16 2 -2.31793 -1.98642 2.32773 9.58363 3.36651 -3.50342
579 193 2 -3.04071 -0.532728 -1.84072 0.278302 8.38715 -28.29
158 53 2 -1.87163 -5.53851 2.8951 13.9074 -4.88821 -6.65986
507 169 2 -0.334315 -1.69645 1.32019 15.8067 5.29157 3.63336
297 99 2 -5.0521 -6.92632 -0.415924 -4.45432 -21.8602 -8.57592
4 2 1 -1.60501 -6.33954 -0.780476 9.73643 -11.4561 -26.5537
6 2 2 -1.17962 -5.62731 -1.38272 -5.91841 6.28247 3.7305
420 140 2 -6.0511 -1.25476 -0.668418 -5.24066 -16.521 4.78622
574 192 1 -0.650219 -1.08236 -3.05361 32.7553 -12.4488 -14.5283
635 212 2 -0.174384 -3.9983 -0.509135 1.02199 18.9993 13.5212
634 212 1 -0.098835 -4.02564 -1.52279 8.55687 -9.69792 -33.7165
505 169 1 -0.86073 -1.16068 2.00997 -35.3001 -17.7817 1.4731
485 162 2 -5.40892 -6.67348 1.51987 -5.94379 -2.29919 9.47686
506 169 2 -0.483681 -0.311483 2.43029 18.2121 6.04772 -1.30897
565 189 1 -6.92191 -4.38204 0.527149 20.9237 19.4006 7.99595
567 189 2 -6.10097 -5.0075 0.429232 -4.64688 -0.503915 -6.45201
578 193 2 -3.76873 -0.342799 -0.462662 13.6574 -9.97207 0.701187
296 99 2 -3.84361 -5.84727 -0.119364 -3.01375 2.16992 -3.44424
295 99 1 -4.86098 -5.97203 -0.178637 11.5459 13.1083 16.5528
234 78 2 -3.37159 -2.44631 -2.77284 -1.36064 2.02974 9.05756
615 205 2 -1.37315 -6.9809 0.525394 3.50756 -13.4732 38.8259
486 162 2 -6.21404 -6.6356 3.01876 6.32916 -9.48573 -9.29031
120 40 2 2.30828 -6.14797 -3.21443 0.633585 13.5667 -6.39127
12 4 2 6.40602 -3.81897 1.8655 4.65366 -6.35415 -10.4112
10 4 1 5.69118 -3.44173 2.48119 8.32009 4.9021 11.1644
138 46 2 6.92827 -1.42795 1.22286 -6.58081 5.47106 1.46925
539 180 2 3.26216 -1.88805 -1.01361 -0.350415 0.808014 0.227758
502 168 1 4.91488 -1.54613 -3.11403 -9.64653 -4.90627 14.8356
503 168 2 4.78781 -0.540868 -2.92679 3.12436 -11.9779 2.98787
538 180 1 3.75811 -1.22945 -0.395433 -5.00277 -2.26223 7.43285
540 180 2 3.80107 -1.72906 0.513992 -0.397531 10.0589 -0.747322
504 168 2 4.44204 -2.13558 -2.3834 18.6244 16.0328 -15.9204
151 51 1 1.68758 -6.21147 -1.66213 4.255 5.75593 -6.41471
152 51 2 1.02905 -5.50218 -1.34974 -9.0858 10.8871 -2.04832
261 87 2 2.75761 -1.14379 3.21353 7.37337 -19.3252 -22.1949
512 171 2 2.40007 -6.02339 -0.157834 -19.9428 -10.8955 -17.5414
636 212 2 0.0670408 -3.1199 -1.99479 -12.2024 -6.00073 19.8348
398 133 2 4.25508 -3.00044 2.11768 -10.4558 1.84158 4.20707
397 133 1 3.28556 -2.65179 1.88078 30.9965 25.234 -15.977
399 133 2 2.60155 -3.29624 2.19015 -18.0778 -24.9736 18.4374
513 171 2 3.80085 -5.64075 0.40202 -16.9712 0.373153 23.635
511 171 1 2.79362 -5.66465 0.692316 46.1746 15.4926 -6.35591
182 61 2 2.11374 -3.51617 -2.35227 -5.27391 -14.9271 -0.324644
181 61 1 2.94168 -3.2446 -1.84244 10.5888 21.3599 -2.61566
183 61 2 3.46748 -3.96355 -1.35901 -4.10728 -14.9287 -0.135923
213 71 2 1.74227 -3.14375 0.789185 9.40273 -4.72154 4.30734
211 71 1 0.803154 -3.42375 1.05396 -28.9305 8.63182 -19.7923
212 71 2 0.689412 -4.37184 1.42891 11.7676 0.165455 12.7369
278 93 2 6.43857 -5.5772 0.505399 -15.0136 -19.5477 4.04711
153 51 2 1.34634 -7.11228 -1.35013 0.764441 -19.0416 5.96087
277 93 1 5.6809 -6.28085 0.283174 -8.80223 12.9097 -19.0202
136 46 1 6.95793 -0.50459 1.66048 1.12117 8.48181 1.38956
279 93 2 5.41173 -7.02921 0.929422 12.3608 6.40988 8.69681
400 134 1 2.87943 -7.11853 2.86044 -16.7137 -4.19946 16.2856
401 134 2 2.63049 -6.4096 2.14631 4.28246 6.29673 -0.307958
256 86 1 -6.2182 2.47033 -2.66228 12.2685 -2.65399 -2.00229
258 86 2 -5.51702 1.80521 -2.98406 3.59445 -11.9149 1.40635
209 70 2 -6.63273 3.89599 -0.110234 1.02712 10.1283 9.60404
208 70 1 -7.09476 3.0121 -0.269509 -1.97902 27.1438 36.5512
210 70 2 -6.72759 2.75101 -1.15712 7.09631 -16.2955 -40.0702
134 45 2 -4.06554 5.47368 -1.03153 37.1107 -4.5533 -4.51776
257 86 2 -5.87821 3.38957 -2.91807 -2.05937 6.89789 -1.81345
298 100 1 -0.238754 0.198558 -0.699991 -3.48978 -1.07727 -6.22012
54 18 2 -2.17233 2.47039 -3.21012 2.54045 -1.19767 5.41534
5 2 2 -1.47537 7.2251 -1.26913 -15.4632 13.9044 14.3397
99 33 2 -4.47163 6.00346 2.19962 13.2747 -9.20701 10.2752
484 162 1 -5.76479 7.23955 2.29876 1.55284 12.6941 1.0611
292 98 1 -1.87289 5.53985 -1.48713 -10.6605 -0.2774 23.2656
562 188 1 -5.40388 0.252352 0.0542014 32.7982 -23.0564 -12.6475
564 188 2 -5.84167 0.961299 -0.487903 -13.5921 21.8009 -10.171
563 188 2 -5.87389 0.12979 0.930665 -18.4802 -0.779189 20.567
135 45 2 -5.32985 6.22907 -1.85558 10.4471 -13.4001 12.2299
133 45 1 -5.0383 5.64011 -1.0467 -44.7432 21.9473 -14.7696
20 7 2 -1.43415 1.56095 -1.23225 26.3729 -25.6731 14.3152
21 7 2 -2.5152 2.72222 -0.859156 -1.74002 -9.05332 5.80029
19 7 1 -2.15274 2.1194 -1.6197 -23.3176 30.1088 -23.7124
98 33 2 -2.85969 6.22297 2.03819 9.15912 -1.6937 4.15136
293 98 2 -1.65858 4.71627 -0.914906 -1.24223 4.40734 -2.67111
294 98 2 -1.479 5.40829 -2.40765 12.4847 -8.13482 -17.6089
97 33 1 -3.54629 5.52762 2.35422 -17.3556 14.6607 -21.6077
253 85 1 -2.85269 3.25379 0.647113 -5.44974 56.328 -19.9579
613 205 1 -1.10191 6.95472 1.41098 4.46532 -1.06371 -42.1132
614 205 2 -0.269216 6.43086 1.02317 -16.5614 12.9925 17.6317
254 85 2 -3.13181 4.19782 1.00099 4.70244 -20.5758 -2.86768
101 34 2 -7.23851 0.380941 3.19675 4.55891 -13.4846 -11.5565
255 85 2 -2.91493 2.63306 1.40334 -1.6018 -27.3577 28.6704
18 6 2 4.692 6.96476 -1.08775 -1.38425 -12.0006 -12.1853
231 77 2 6.51572 1.6493 -3.1861 19.8642 0.0205093 16.8722
16 6 1 4.75956 6.31933 -1.89988 19.4998 22.8793 2.75436
17 6 2 5.65875 6.53314 -2.35451 -10.2613 -8.16632 -0.565146
648 216 2 0.434896 1.53317 0.41764 -1.71599 5.22311 4.04571
468 156 2 6.21154 2.0623 0.0990778 -11.0401 -27.4543 -10.4925
466 156 1 5.7605 1.096 0.0514718 2.56996 11.8361 5.55328
467 156 2 4.84536 1.06624 -0.404507 -2.91367 9.75613 3.98296
137 46 2 6.36447 0.191313 1.12036 9.28714 -17.5678 0.937955
321 107 2 3.09357 0.405724 -0.443876 4.03296 -13.3167 1.3901
319 107 1 2.97264 1.41677 -0.516805 -7.1426 5.05854 -3.78284
320 107 2 2.12493 1.65932 0.0129964 5.02702 4.34565 5.07189
647 216 2 0.543163 1.61638 2.03001 2.74581 5.62042 14.4944
604 202 1 4.13657 5.75954 0.679112 10.6599 -11.3738 -5.96148
606 202 2 3.91173 4.99489 1.32366 6.91194 -3.67642 1.93788
646 216 1 0.803316 2.13014 1.17712 -2.28816 -11.2828 -30.5157
605 202 2 4.64898 5.38881 -0.158333 -18.0653 8.52241 17.7508
86 29 2 1.57056 5.66212 1.11453 0.821507 1.81444 0.0561352
87 29 2 1.24105 5.1932 -0.415361 2.06596 9.24504 0.106846
85 29 1 1.0692 5.93949 0.273623 -2.10954 -12.3395 -3.42477
330 110 2 0.851563 5.45849 -2.58251 16.0801 -6.11058 -12.7641
224 75 2 3.14832 4.22633 -2.12529 -4.94926 -8.08498 1.89884
223 75 1 3.67375 3.33812 -2.18834 11.7198 -14.9169 -5.35032
328 110 1 1.87865 5.42963 -2.41715 3.41483 13.7514 12.7503
225 75 2 3.28622 2.55509 -1.60072 3.19457 18.605 -2.80208
329 110 2 2.46316 5.93725 -3.1105 -11.5997 -10.4643 5.17745
402 134 2 3.11584 6.57111 2.29133 11.9709 -10.4997 -7.14383
496 166 1 3.88803 4.25865 3.16947 3.1848 9.59277 -10.2325
124 42 1 -4.63554 -0.0984281 5.122 8.88531 5.68317 3.63948
303 101 2 -4.15672 -2.62851 4.01952 -2.89661 -9.6972 -8.89103
125 42 2 -4.83011 -1.08456 5.34013 0.151813 1.03848 -0.219567
598 200 1 -3.24988 -7.03066 4.86481 0.470869 19.8765 1.64476
600 200 2 -4.19916 -7.00986 5.22472 -7.30833 1.58542 -6.74567
599 200 2 -3.12945 -6.21545 4.2093 -3.00956 -16.8334 7.91334
301 101 1 -4.66354 -2.95646 4.84873 16.4334 6.38654 6.07763
302 101 2 -3.86184 -3.25569 5.42671 -7.72457 -6.28691 6.97827
51 17 2 -3.28285 -4.60095 8.56562 11.5706 -1.34408 0.43851
49 17 1 -3.89826 -5.35315 8.27785 -12.7067 -24.3566 -6.25386
50 17 2 -3.4812 -6.26542 7.98958 2.05579 19.0217 12.0951
404 135 2 -6.91506 -4.75312 4.3848 -10.6499 20.4727 3.83729
403 135 1 -7.03975 -5.74812 4.31267 2.50692 -42.9042 -4.12211
495 165 2 -2.43631 -4.82112 6.21567 -5.38434 -10.8506 -1.13404
493 165 1 -2.41966 -3.82151 6.33129 3.87954 12.823 -1.63169
428 143 2 -6.30419 -3.08298 4.66526 10.4803 10.8218 11.8362
494 165 2 -1.4526 -3.54574 6.14798 6.06263 3.42765 -4.93168
272 91 2 -1.2125 -2.43686 9.25354 -3.12789 -2.21437 4.1243
111 37 2 -1.90268 -1.60456 7.29614 5.93681 -2.48491 10.2226
109 37 1 -1.13016 -1.25958 7.88223 -9.3418 -3.26033 -8.72823
580 194 1 -6.16901 -3.39452 8.06817 -28.0415 1.44448 -16.441
582 194 2 -5.20649 -3.68567 8.09178 14.9726 -5.9457 10.2124
581 194 2 -6.57462 -3.08938 8.9489 12.1568 -1.97946 11.3084
110 37 2 -0.794339 -0.44696 7.36017 2.5887 9.27771 -2.97593
528 176 2 -6.52568 -5.68565 7.34227 3.97271 -14.6918 10.4002
526 176 1 -6.39373 -6.59104 7.83398 18.058 14.219 12.1818
527 176 2 -5.53637 -6.48528 8.44184 -27.1454 3.17114 -20.6616
11 4 2 6.1833 -3.21686 3.37327 -6.98766 0.34113 -5.79702
427 143 1 7.16136 -2.97069 4.71775 -23.3693 -4.92457 5.48569
429 143 2 6.81395 -2.67135 5.65636 12.2634 -3.65801 -14.3239
78 26 2 1.39986 -6.15975 7.0359 7.88597 9.1164 8.88824
63 21 2 6.68936 -3.11725 7.55282 16.9388 -5.75013 4.39674
61 21 1 5.84801 -2.65653 7.22014 -17.3419 13.0457 -5.2379
62 21 2 5.6175 -1.89604 7.87407 4.92498 -5.73096 -5.63261
260 87 2 2.8942 -1.11467 4.8777 -1.7794 5.21118 -14.5172
88 30 1 4.91271 -6.37367 4.42396 -10.6549 -21.3206 49.6749
259 87 1 2.57248 -0.603953 4.03197 -7.81734 8.56587 34.9762
89 30 2 4.05218 -6.82432 4.059 7.68384 12.0947 -13.4905
411 137 2 3.42803 -4.20372 5.416 3.74984 9.88198 -2.36439
410 137 2 4.67704 -3.09046 5.40955 -3.67305 -4.71707 -1.67329
409 137 1 3.68298 -3.2305 5.2048 -1.36347 -6.25261 5.77514
405 135 2 6.44717 -6.07139 4.38674 9.32854 26.6829 -6.24465
90 30 2 4.84471 -6.4973 5.48453 7.81724 11.2462 -30.3735
161 54 2 1.05759 -3.76571 5.91633 -19.9582 7.06145 -12.9823
162 54 2 0.507594 -2.45564 5.04114 5.27938 19.4155 -7.20115
390 130 2 0.319176 -4.35627 3.95214 9.9003 -12.7072 -9.75142
388 130 1 0.690609 -5.0626 3.2711 -11.1312 8.44102 10.3225
389 130 2 1.18746 -5.79356 3.77189 0.981983 -0.249442 -2.87615
160 54 1 0.271018 -3.38233 5.3325 13.1633 -26.4187 26.6257
77 26 2 2.59267 -5.34802 7.88163 -12.9379 3.48408 -18.0664
76 26 1 1.98947 -5.30023 7.04247 8.05717 -1.90667 6.4189
218 73 2 4.32843 -1.54741 6.55718 12.9216 -23.2545 -7.62951
290 97 2 6.04569 -6.78386 7.45978 -10.1135 1.78099 -0.925116
217 73 1 3.74131 -0.85191 6.96263 -17.6881 32.3942 12.5188
375 125 2 0.673735 -1.09709 8.66613 -15.3709 0.37066 -4.30471
373 125 1 1.54103 -1.51983 8.96364 22.0421 -2.43302 4.43881
374 125 2 1.37911 -2.42054 9.44963 1.54475 3.78368 -3.28245
289 97 1 5.09561 -6.61588 7.08192 -3.65225 -5.63515 9.25149
291 97 2 4.35193 -6.81096 7.76966 15.9865 1.04941 -8.86307
219 73 2 3.01135 -1.23034 7.56254 -3.86334 -5.79521 2.01614
126 42 2 -4.53705 0.455872 6.00838 -2.91213 -11.1962 -5.5662
25 9 1 -3.08728 6.44598 7.60047 5.83909 -34.4018 -5.7325
26 9 2 -2.85761 5.4308 7.37331 0.376934 26.6372 12.812
27 9 2 -3.2711 6.81689 6.67539 1.5679 5.56607 -9.36838
163 55 1 -1.22884 7.18755 9.63368 35.0491 15.3971 17.1441
91 31 1 -2.13323 3.90433 7.06459 0.911919 -6.58065 13.4415
93 31 2 -2.32016 3.46595 6.15848 -0.642039 0.36107 -0.873479
165 55 2 -1.91095 6.6848 9.08947 -24.5877 -4.10268 -11.0706
449 150 2 -2.10189 6.09775 4.73287 5.96374 1.38256 -10.8427
450 150 2 -1.47125 5.21642 3.44604 -6.80703 -2.61058 -16.3675
448 150 1 -1.28051 5.598 4.35027 10.1623 4.55652 27.7496
167 56 2 -3.94671 4.59983 3.60976 -3.01887 3.79412 -2.86726
41 14 2 -5.35978 0.554443 7.66229 -14.0906 -9.40764 8.57754
168 56 2 -4.96044 4.7464 4.95126 16.8359 -20.5746 -11.4851
166 56 1 -4.36144 4.08186 4.40509 -17.8478 21.4706 15.8659
42 14 2 -4.85159 2.07215 7.53216 3.52316 -7.38288 -4.81848
40 14 1 -4.51851 1.09606 7.46095 13.2685 17.3521 0.259656
92 31 2 -1.95563 3.16476 7.78275 -6.53024 10.133 -11.7964
102 34 2 -6.0898 0.314378 4.46649 8.08702 -5.22 -2.0147
238 80 1 -2.7891 2.07486 4.86081 8.97479 14.9484 -2.06325
240 80 2 -3.39019 1.26289 4.85329 -10.2264 -16.0655 -2.02185
239 80 2 -3.38429 2.86734 4.52744 -0.449312 -1.14781 6.71653
100 34 1 -7.05613 0.505647 4.18972 -22.7394 21.3408 14.0096
435 145 2 -2.96972 1.28583 8.43445 8.23987 16.4698 10.6898
461 154 2 -1.57834 1.62643 5.91084 17.6054 -10.8781 -3.17125
417 139 2 -6.42064 3.94844 6.45928 -5.79667 -38.8146 15.8943
325 109 1 -7.02128 0.434154 8.08851 0.861818 -17.0706 14.2758
433 145 1 -2.3408 1.93954 8.96489 13.2248 -25.3739 3.93007
337 113 1 -5.99883 5.48322 6.56331 8.24496 9.78204 11.3504
338 113 2 -6.68428 5.57778 5.77963 -5.40914 9.83981 12.1369
434 145 2 -1.58643 1.39574 9.44688 -21.601 15.64 -15.7187
237 79 2 -0.615389 1.26292 3.99357 -3.15055 1.9316 8.20821
460 154 1 -0.725537 1.06966 6.16919 -5.6795 -1.02597 10.2346