ITEM: TIMESTEP
27500
ITEM: NUMBER OF ATOMS
648
ITEM: BOX BOUNDS pp pp pp
-7.3217057696413725e+00 7.3217057696413725e+00
-7.3217057696413725e+00 7.3217057696413725e+00
-1.6270457265870096e+01 1.6270457265870096e+01
ITEM: ATOMS id mol type x y z fx fy fz
534 178 2 -5.19626 -3.8135 -13.409 19.9851 -11.6094 1.60115
533 178 2 -4.32566 -3.23258 -12.1854 9.11337 6.94074 5.1845
532 178 1 -4.31787 -3.99019 -12.8596 -20.5926 6.83907 1.53768
378 126 2 -0.144871 -4.7909 -12.4777 -5.8651 -0.509176 19.1332
129 43 2 -5.42841 -2.76095 -14.7624 2.54129 5.02943 -9.80201
520 174 1 -2.04266 -4.24481 -15.9711 -12.0501 -33.5682 -5.93041
583 195 1 -5.11794 -5.94135 -15.1449 -0.594824 6.12277 -18.0881
584 195 2 -5.43402 -6.87683 -14.8692 -10.4251 10.7888 10.1317
394 132 1 -4.19916 -1.67492 -15.2289 -27.1587 20.6208 2.75404
127 43 1 -6.2338 -3.3726 -14.5773 -6.70521 -22.4241 5.49238
128 43 2 -7.11052 -3.08885 -15.0381 1.09089 15.6514 2.45285
396 132 2 -5.06886 -1.15106 -14.9608 27.8887 -8.52575 -4.12235
522 174 2 -2.06302 -3.3148 -15.5362 -11.4091 -6.4875 1.0702
322 108 1 -6.40158 -0.166417 -13.5754 -1.48872 -2.03153 -5.63931
585 195 2 -5.80807 -5.15427 -15.1632 12.7403 -19.5624 10.8109
395 132 2 -3.5476 -1.09918 -15.777 -4.65193 -7.32473 5.80991
412 138 1 -0.946208 -4.47773 -10.5298 -14.1065 19.8107 -24.9267
432 144 2 -2.77149 -6.70374 -13.3575 -4.46662 10.2371 17.6741
430 144 1 -2.95841 -6.24887 -12.4165 -4.0365 -10.9686 -12.6744
431 144 2 -3.48422 -5.37105 -12.5773 1.46709 5.52961 -5.58022
414 138 2 -1.95306 -4.37627 -10.7495 17.4605 -13.2716 6.38956
413 138 2 -0.739766 -5.20316 -9.82074 -7.0295 3.68559 -3.52529
173 58 2 -0.0897395 -2.04618 -14.2465 8.78265 -13.0568 -15.8768
477 159 2 -7.15851 -4.73271 -11.6313 15.8335 -9.26459 -4.70783
317 106 2 -2.06287 -1.66167 -12.9949 -0.0500818 -4.56133 0.529479
316 106 1 -1.22908 -2.25597 -12.9513 -0.06343 5.38889 3.7407
318 106 2 -1.3093 -2.82954 -12.1082 2.15774 1.49894 -4.06273
174 58 2 -0.144525 -1.95718 -15.8936 -10.7222 1.1626 -6.05998
459 153 2 -0.639738 -5.34406 -16.252 21.9948 1.58598 -10.7704
521 174 2 -2.82618 -4.9175 -15.7712 18.6875 31.8803 7.25835
383 128 2 -5.84728 -6.7106 -10.5957 0.114857 1.42735 3.45211
620 207 2 -0.0158484 -7.0147 -12.807 -6.80092 13.5813 -3.69934
382 128 1 -5.92408 -6.36174 -11.5738 -3.52206 5.71781 -27.0857
384 128 2 -5.03615 -6.46676 -12.0776 -6.11986 3.94313 6.53527
83 28 2 -3.21594 -0.687998 -10.6227 4.34489 2.54904 -9.54194
82 28 1 -3.58247 -1.52678 -11.0849 -0.432786 -7.61774 22.131
84 28 2 -4.18118 -1.91335 -10.3164 1.23635 4.38207 -12.8931
377 126 2 0.375042 -4.58659 -13.9791 2.03144 0.581865 -5.16705
170 57 2 0.191168 -0.327562 -12.349 -4.44526 -11.4137 3.56905
476 159 2 6.92885 -3.28313 -12.3142 2.00197 -6.22372 3.46275
475 159 1 6.95478 -3.8834 -11.4821 -11.2068 8.09442 -2.732
376 126 1 0.338118 -5.26545 -13.2243 5.91595 3.02757 -16.761
59 20 2 5.96046 -3.88334 -10.1676 -2.09506 16.5501 13.6413
201 67 2 3.27313 -3.79125 -16.0268 -11.8376 -11.4759 5.0748
200 67 2 1.85328 -3.15706 -15.604 -15.8031 -2.84662 8.93144
45 15 2 5.22569 -2.51227 -14.6727 3.3666 -1.16001 11.6598
43 15 1 6.03184 -2.26048 -15.2721 1.59653 -9.12234 5.19756
81 27 2 2.37242 -5.89037 -14.2425 -0.298883 3.46447 -8.13184
79 27 1 2.91638 -6.56682 -13.7134 17.4554 2.56037 -18.67
147 49 2 2.93731 -2.81265 -10.5212 -2.88321 8.61799 -11.6052
146 49 2 1.94568 -1.54113 -10.7007 0.599869 3.92332 -4.21478
145 49 1 2.59932 -2.12516 -11.2135 6.12611 -15.1992 15.8131
385 129 1 4.37335 -3.07339 -13.3565 -10.0971 -21.4189 2.57744
386 129 2 3.95682 -4.01164 -13.2925 6.26257 9.90381 -4.72322
387 129 2 3.83868 -2.54383 -12.6625 -2.47967 10.7272 3.25897
80 27 2 2.42814 -6.60676 -12.8472 -10.4203 -5.24119 28.1364
423 141 2 5.60937 -4.42392 -15.6694 7.58208 10.1387 11.7007
626 209 2 5.65775 -0.732447 -14.1907 25.3699 -20.0589 -5.20411
627 209 2 4.16716 -0.389553 -14.2879 -32.7849 -1.47294 -7.69193
456 152 2 1.85041 -1.26648 -14.9605 2.90844 -3.45179 7.48468
172 58 1 0.464302 -2.24333 -15.1208 -5.07921 15.2413 25.7046
474 158 2 4.92278 -6.99422 -12.7037 -0.916973 2.19778 -0.157726
176 59 2 4.8342 -6.55802 -16.2117 -9.3898 -9.50591 10.8499
472 158 1 5.83801 -7.2938 -12.3611 7.78709 9.1146 9.93102
473 158 2 6.33792 -6.55429 -11.8388 -6.93132 -9.65329 -9.44153
454 152 1 2.79252 -0.8547 -15.0375 -13.179 -6.58371 -6.54515
455 152 2 2.79271 -0.450247 -16.001 6.84439 3.1604 8.6247
379 127 1 2.19119 -7.17837 -10.7531 21.1845 -5.96893 5.41453
199 67 1 2.3491 -4.05418 -15.6534 27.1739 -0.776979 -12.3126
44 15 2 5.64518 -2.0871 -16.1902 -5.34213 5.7639 -20.6669
169 57 1 -0.15983 0.448274 -11.8004 -9.41726 22.5845 10.9243
324 108 2 -7.31302 0.292916 -13.5666 -3.88603 -2.73059 1.73275
323 108 2 -5.9127 0.0779119 -12.6973 3.23699 2.36543 4.34822
163 55 1 -5.30851 0.943565 -11.3865 -4.65862 9.50447 17.3628
171 57 2 -0.817285 0.248539 -11.0172 9.80142 -2.69973 -12.7336
165 55 2 -5.52917 1.93784 -11.2291 5.17934 -4.11643 -7.86362
139 47 1 -6.95089 6.07064 -14.1697 -12.3054 13.6403 25.6873
227 76 2 -3.40937 1.61441 -12.2235 -17.2264 -19.3712 14.0752
164 55 2 -5.34412 0.5259 -10.4375 1.2901 3.33311 -8.06351
226 76 1 -2.72738 2.13 -12.7314 40.4759 19.0205 -12.6472
228 76 2 -1.7396 1.83277 -12.5807 -23.9455 -2.75898 0.125413
621 207 2 -1.17706 6.96715 -11.7631 -12.2855 3.31876 -3.88547
619 207 1 -0.206963 6.98332 -12.0425 20.9148 -18.1981 11.1489
119 40 2 -0.961484 3.92149 -14.5437 5.94581 -0.544483 9.40265
118 40 1 -1.10259 4.22316 -13.5613 -14.3972 -3.80142 -9.72208
120 40 2 -1.94893 3.72363 -13.2418 7.19489 2.61029 0.184258
539 180 2 -1.90783 3.89831 -10.5387 -5.23474 -4.92987 12.7952
570 190 2 -3.7915 5.67813 -10.8114 1.21738 -1.67621 4.0414
568 190 1 -3.27379 5.801 -11.6752 -7.94016 0.576231 6.74569
569 190 2 -3.4506 6.77203 -11.9627 12.6865 1.85742 -5.08227
8 3 2 -2.04984 6.21249 -14.203 -2.80729 -0.446045 -4.61192
7 3 1 -2.65986 6.94659 -14.5872 1.22539 -9.09116 -6.40878
220 74 1 -0.652463 3.21974 -16.0806 10.6405 -19.554 -15.9081
617 206 2 -4.56903 4.40923 -11.9715 2.75752 6.43326 -8.73815
618 206 2 -6.26544 4.3087 -11.6069 30.309 -6.74436 -0.299841
616 206 1 -5.28762 3.97465 -11.3943 -42.9411 -5.33907 11.2633
344 115 2 -5.90896 0.764564 -14.7168 -1.13407 15.0001 -10.9253
540 180 2 -3.36887 3.49993 -9.90494 -12.1176 3.15963 -2.50028
144 48 2 -6.92282 6.92475 -15.7929 -9.71228 -15.8027 12.2346
345 115 2 -4.66327 1.07441 -15.7453 -7.23316 16.0451 0.196562
339 113 2 -6.68497 3.03814 -16.1967 7.49118 21.0425 -13.1704
9 3 2 -3.08589 6.67666 -15.5009 11.7424 5.44201 12.7613
343 115 1 -5.62841 1.37888 -15.5254 10.9878 -23.5013 0.312199
625 209 1 5.05196 0.0433086 -14.0676 12.4118 31.0222 15.755
141 47 2 7.17795 6.38922 -13.292 16.9832 -8.43359 -37.0332
380 127 2 1.38511 7.17683 -11.3209 -10.1142 -1.61493 2.59563
309 103 2 0.640146 2.20861 -11.8341 -12.2538 -6.21414 -0.184206
307 103 1 1.06538 3.12103 -11.9817 16.4826 24.4073 -1.42386
638 213 2 6.04038 0.0128561 -10.0919 1.36655 -8.47784 8.39117
637 213 1 5.34791 0.760102 -10.1395 6.21726 36.9759 -20.0352
177 59 2 4.02466 6.95867 -15.1788 -12.071 11.7633 15.2421
175 59 1 4.60187 7.09382 -15.9952 16.8896 9.68524 -22.6449
336 112 2 5.37912 4.51782 -15.1269 -0.849478 1.4684 -15.8703
471 157 2 6.27515 4.59227 -12.7199 -10.4129 -2.37694 5.60573
470 157 2 6.09282 5.80357 -11.547 3.50417 -27.2829 -11.769
639 213 2 5.78275 1.6012 -10.5699 -11.5994 -22.192 10.3049
262 88 1 0.44262 5.93642 -16.1421 -25.8208 -14.8503 -23.7129
469 157 1 6.31496 4.7827 -11.6996 8.80899 20.0198 14.7704
194 65 2 2.49874 2.74614 -13.4194 -4.64338 -9.0917 7.71075
193 65 1 3.3361 2.5679 -13.9726 8.02336 25.2686 -9.37641
195 65 2 3.80191 1.67676 -13.8578 -0.75761 -15.8468 5.72028
334 112 1 5.61362 4.19823 -14.1962 0.163789 -4.31543 8.11444
335 112 2 4.80597 3.63486 -13.888 -0.908435 -3.0829 -3.14076
308 103 2 0.433847 3.94231 -12.0837 0.831754 -22.7101 -5.24167
90 30 2 2.4521 4.25749 -10.9932 -5.29436 -8.0857 -13.8189
88 30 1 2.51823 4.75388 -10.1177 13.3269 11.4176 6.95481
285 95 2 3.59552 1.34056 -9.8775 -8.66076 -0.411374 9.28717
381 127 2 2.75857 6.63195 -10.5016 -15.2187 2.94057 -4.0928
140 47 2 7.26682 5.20454 -14.5319 0.350121 5.1655 7.07331
264 88 2 1.09993 5.72747 -15.407 7.8764 15.7895 7.68313
610 204 1 -5.17031 -2.1501 -9.04969 -15.7702 -8.10872 -2.50275
612 204 2 -4.9138 -2.00022 -8.06193 11.1043 1.94844 3.9044
611 204 2 -5.74375 -3.00134 -9.05778 6.31331 -7.26191 0.683793
31 11 1 -6.67318 -4.55338 -8.27474 6.74548 -2.37475 16.5338
135 45 2 -6.78939 -1.44465 -9.07364 -8.46898 21.1072 3.93138
123 41 2 -0.362696 -2.31869 -7.65369 -19.0661 -13.0745 3.71217
32 11 2 -6.75117 -4.64554 -7.22542 1.74345 7.71614 -17.626
152 51 2 -4.81456 -6.53388 -4.32115 3.17381 -3.16303 -3.25688
153 51 2 -3.93588 -5.14097 -4.45236 -23.5193 -22.6045 -28.5381
151 51 1 -4.52726 -5.82261 -5.00684 22.3027 28.4054 28.2827
507 169 2 -6.52514 -4.36307 -4.90035 6.08031 2.16096 -0.810909
636 212 2 -6.53675 -6.36355 -8.72148 -8.08284 13.414 -1.37805
505 169 1 -7.12713 -4.26296 -5.71499 2.70301 -1.371 7.25486
121 41 1 -1.32555 -2.72304 -7.71278 30.4003 9.61504 12.9167
122 41 2 -1.58963 -2.5966 -8.667 -9.85767 2.44953 -19.0799
504 168 2 -1.87725 -6.29694 -8.2884 6.76679 21.6083 6.249
502 168 1 -1.07101 -5.6213 -8.22806 1.19625 -14.4443 1.29467
503 168 2 -1.35328 -4.62852 -8.206 -5.24525 -7.27798 7.65068
86 29 2 -6.45593 -0.536189 -5.11838 12.179 8.32409 9.74184
647 216 2 -3.9951 -1.09776 -5.92776 -4.01308 -13.7767 -16.9709
368 123 2 -4.54625 -2.2808 -4.16622 -0.711123 -9.64926 -1.7082
648 216 2 -2.99656 -2.09923 -6.81183 -15.6893 0.338479 -3.76486
646 216 1 -3.99398 -1.86427 -6.62602 15.6696 12.2177 19.5996
361 121 1 -0.867332 -0.50618 -4.38372 -9.10979 11.2013 -8.71957
179 60 2 -7.16527 -1.88632 -3.40022 -1.28888 -0.251416 -5.34589
350 117 2 -3.79892 -6.2597 -7.13127 6.12255 -5.71933 -9.26832
635 212 2 -5.07234 -6.95524 -8.52268 4.57854 -3.75306 -12.6603
634 212 1 -5.8961 -7.03173 -9.14166 11.5124 -18.8036 26.5896
349 117 1 -3.39481 -6.85039 -7.88494 -4.31955 -21.6454 36.9228
362 121 2 -0.982635 -1.48036 -4.62352 6.187 -8.56987 5.17377
367 123 1 -4.08211 -2.97754 -3.57211 -12.7995 10.3032 1.21294
363 121 2 -0.224314 -0.305167 -3.61428 -1.4262 -0.493147 -1.18454
33 11 2 7.15116 -4.03223 -8.58425 -11.7579 -0.715147 -3.11462
60 20 2 4.93574 -4.27146 -8.90552 5.38208 17.0785 -4.44072
58 20 1 5.61229 -3.5423 -9.2308 -7.9842 -35.0873 -8.17961
198 66 2 3.06243 -6.24234 -9.44093 0.986979 2.62071 -7.06333
196 66 1 3.29832 -5.4833 -8.79367 13.3458 -1.52776 -11.21
197 66 2 2.44309 -5.38767 -8.22682 2.17342 5.06808 8.55345
85 29 1 7.26405 -0.933671 -5.04285 5.99842 -8.14009 0.23236
282 94 2 7.08954 -5.9554 -5.52886 -3.47024 -2.15808 -4.8358
258 86 2 2.34125 -1.93143 -7.15682 10.5902 5.79384 19.8624
256 86 1 1.81042 -2.5372 -7.76318 -23.7187 -11.5082 -22.2672
257 86 2 1.685 -3.50434 -7.42955 4.80356 4.21181 1.24115
133 45 1 6.84888 -1.18588 -8.97325 35.988 -22.4463 -13.2891
134 45 2 6.45617 -2.11362 -9.19272 -23.0653 1.39434 2.82402
87 29 2 7.01011 -1.10227 -6.01837 -16.2613 2.70866 2.72706
506 169 2 6.74796 -3.65378 -5.4538 -5.2616 3.06259 3.47895
492 164 2 5.70141 -0.572109 -7.84909 14.0276 -13.8654 -27.0713
490 164 1 5.42956 -0.196404 -6.96109 -21.873 33.3482 17.9909
555 185 2 0.468801 -5.40405 -7.72688 7.29182 2.60114 12.1472
553 185 1 1.33421 -5.28434 -7.14075 -17.972 -13.2371 4.88971
554 185 2 1.29933 -6.08991 -6.4888 -0.139366 6.65953 -3.77713
600 200 2 1.38575 -4.51376 -3.9603 14.9461 -2.86861 0.4132
603 201 2 2.9734 -1.43684 -4.59243 20.058 18.2168 -13.7049
601 201 1 3.05103 -1.31528 -5.62736 -17.9889 -20.5369 -4.23711
602 201 2 3.87446 -0.832964 -6.01283 8.38158 5.48761 13.5346
210 70 2 2.93547 -4.70709 -5.70974 -3.68276 3.825 -6.23452
253 85 1 5.3731 -4.50813 -3.62608 -8.04642 33.8403 27.3633
254 85 2 4.469 -4.2192 -4.0273 1.48013 -7.86175 -4.02109
209 70 2 2.99463 -3.04705 -5.33379 -0.46008 3.48429 -7.67883
208 70 1 2.89407 -4.00153 -4.97326 6.06431 -5.05895 10.3534
280 94 1 6.63014 -6.82929 -5.82187 -10.9247 -6.6409 -0.582353
116 39 2 4.49372 -6.50165 -4.64749 -2.87103 -9.41554 -6.33506
117 39 2 3.47471 -7.01915 -3.58779 -7.10291 -9.82865 12.9378
115 39 1 3.75503 -7.21362 -4.54044 15.175 19.7117 -10.3014
463 155 1 -2.12252 0.698396 -9.69795 -4.29002 2.941 16.365
464 155 2 -2.46638 1.66973 -9.63509 8.37341 -2.09014 -12.1407
538 180 1 -2.37605 3.45905 -9.72615 9.952 3.83641 -9.08515
525 175 2 -4.91852 1.23917 -7.93221 24.5381 8.73109 25.3233
523 175 1 -5.59038 0.979132 -8.60007 -20.9828 -6.87385 -23.0356
524 175 2 -6.51157 1.07487 -8.18312 -3.9953 -1.03891 -1.31809
99 33 2 -1.38203 0.152594 -6.20491 -9.93424 3.27257 -1.39754
98 33 2 -2.84047 0.970282 -6.61503 13.8176 -4.49441 -0.695887
97 33 1 -2.10925 0.301905 -6.92564 -0.932025 13.4939 5.31203
645 215 2 -4.87928 2.92173 -5.97586 7.65081 -10.3919 -1.93302
229 77 1 -6.54903 2.30129 -5.33283 6.83949 -19.4444 -25.5212
465 155 2 -1.9477 0.495876 -8.69673 -1.10079 -9.27122 -5.68678
644 215 2 -3.96753 3.07335 -7.34348 -1.13298 -7.09725 19.713
365 122 2 -5.88753 4.30569 -9.5467 0.770841 3.89227 4.31792
643 215 1 -4.00487 2.59139 -6.42331 -5.56533 11.4566 -26.9937
299 100 2 -6.09954 5.44439 -5.52218 3.33466 2.31033 6.61117
300 100 2 -6.36534 5.41206 -3.7815 -2.47231 -2.92115 -36.0986
366 122 2 -6.00143 5.52963 -8.38914 -6.26935 8.21445 -5.24401
364 122 1 -5.66131 4.59869 -8.59035 13.3046 -13.6173 1.68857
34 12 1 -4.61395 0.0751125 -4.33565 -10.7694 -14.1076 -14.0856
39 13 2 -2.23097 6.24618 -5.19237 -3.83227 -2.63327 4.94494
35 12 2 -4.98163 0.978765 -4.6469 1.20563 2.71832 2.97465
36 12 2 -3.60946 0.103153 -4.27034 12.6086 9.92764 6.04754
298 100 1 -6.76257 5.35078 -4.75485 -3.80004 -4.27053 31.7018
10 4 1 -2.03623 5.62393 -6.80899 10.8626 12.2877 -1.49153
11 4 2 -2.17489 4.67368 -7.0693 -16.9691 -23.1389 -0.691395
12 4 2 -1.10816 5.75419 -7.21771 10.4948 16.3006 -2.34348
351 117 2 -3.01469 6.92981 -7.39638 -8.13353 22.3767 -17.9924
260 87 2 -3.77117 6.86333 -3.31028 6.68016 -4.06616 -9.04172
230 77 2 -6.30027 2.72309 -4.45552 -9.50743 15.7263 20.227
38 13 2 -1.69703 6.44609 -3.57107 -14.5783 5.12235 -21.3589
37 13 1 -2.51917 6.37167 -4.20435 24.6647 0.764412 16.9819
479 160 2 5.80747 4.16036 -9.69357 -1.2321 7.82428 -4.77852
89 30 2 2.19658 4.0982 -9.3985 -4.05798 0.83091 0.21067
68 23 2 5.30498 7.03548 -7.14694 11.5892 0.605008 -12.1764
67 23 1 4.46948 6.45509 -7.14598 6.55121 -0.639863 10.0693
281 94 2 6.48525 7.16008 -5.04374 9.84747 4.04388 -2.56109
491 164 2 5.42621 0.854088 -7.08012 -1.33803 -19.0862 10.0248
69 23 2 4.18014 6.73178 -6.20821 -14.4858 -4.81726 5.72791
557 186 2 0.849246 6.39286 -8.84973 1.73724 -4.14953 1.16085
556 186 1 0.552027 5.82552 -8.05069 -11.315 -2.42317 6.63598
249 83 2 2.28258 3.7687 -7.07531 5.51757 1.50462 -16.7395
231 77 2 7.15252 2.45679 -5.72274 3.97746 4.83191 9.59391
558 186 2 0.782524 4.83052 -8.20976 3.91858 6.04507 -5.21911
237 79 2 2.2207 6.88858 -5.10384 -7.60279 3.76957 -3.56521
235 79 1 1.22173 6.90397 -5.39702 12.0179 11.5539 14.1543
236 79 2 1.04353 6.15993 -6.04282 -0.66015 -13.593 -22.8003
13 5 1 5.45218 2.47198 -6.91598 4.52838 -6.90011 8.09808
14 5 2 4.98761 3.07763 -6.24222 -4.26105 -1.09615 10.5329
478 160 1 5.83547 4.2803 -8.68107 9.21551 -9.05673 -7.32242
480 160 2 5.17779 4.97205 -8.34788 -8.33814 15.7437 -0.1696
15 5 2 5.7159 3.14047 -7.66259 2.48646 0.623312 -9.62801
623 208 2 1.79089 2.42236 -8.78088 -4.92411 -10.3773 0.264591
283 95 1 2.85312 1.40229 -9.14992 20.255 -15.7241 -2.72915
284 95 2 3.20365 0.760428 -8.42734 -6.14927 7.38713 -5.44706
247 83 1 2.83234 4.32207 -6.42075 -4.66064 -0.881092 37.1515
248 83 2 3.60423 4.91422 -6.74253 -3.29742 2.59435 -17.4072
622 208 1 1.15697 3.1787 -8.42875 -3.69313 23.0411 14.0933
624 208 2 0.215182 2.88375 -8.18055 1.37675 -13.0783 -6.22504
306 102 2 0.504506 6.62244 -3.79384 8.0846 13.6674 -7.09459
445 149 1 4.87649 0.931859 -4.19761 15.3421 28.6538 2.10659
537 179 2 1.45252 4.37325 -3.55042 -15.0473 -1.07027 0.440025
446 149 2 5.74298 0.498191 -4.50324 0.416481 -18.0338 -3.20585
447 149 2 5.07445 1.91567 -4.47729 -15.9968 -11.2638 10.5963
329 110 2 5.20462 4.20914 -3.5035 -12.2812 -3.29003 8.66399
328 110 1 5.47918 3.78906 -4.39713 22.8519 -0.18599 -9.24317
330 110 2 6.42889 4.17328 -4.5294 -6.1286 1.92763 -7.37435
536 179 2 2.71021 4.57051 -4.61602 2.31276 -3.95525 -5.29063
535 179 1 2.44128 4.51286 -3.62552 8.2852 -3.52666 6.71173
369 123 2 -3.27511 -2.49047 -3.20875 14.5591 -3.47029 7.21299
178 60 1 -6.90708 -2.72637 -2.87123 -5.67645 -6.07978 7.69205
501 167 2 -2.69374 -4.53952 0.301827 0.084878 3.12785 2.6643
374 125 2 -2.49171 -5.96139 3.11966 -6.86077 -7.17818 -3.31822
373 125 1 -3.38739 -6.47463 3.06212 24.8287 8.52697 2.54283
301 101 1 -0.758418 -4.66389 3.12768 4.68967 23.3866 14.2538
94 32 1 -3.94744 -4.62484 -1.14405 -23.2708 4.28958 -9.84347
499 167 1 -1.67743 -4.56518 0.464172 13.9076 -0.716144 4.29711
500 167 2 -1.34507 -4.44859 1.44729 -13.3219 -2.71815 -11.5852
95 32 2 -4.80907 -5.17439 -1.14481 11.7167 -4.75748 7.71495
96 32 2 -4.05183 -3.99898 -1.95016 11.7459 -0.881308 1.32376
353 118 2 -0.513296 -1.6246 -1.73963 8.43735 5.28814 10.3549
352 118 1 -0.396325 -0.710482 -1.25754 -34.2117 -4.40948 -8.87089
149 50 2 -5.72796 -0.0804372 2.09305 -14.403 0.0917016 -14.7446
370 124 1 -1.44552 -7.10722 -0.48551 2.92106 -18.5892 -10.6544
371 124 2 -0.75286 -7.1916 -1.25715 -9.83479 11.4882 5.74919
57 19 2 -6.79826 -6.79912 -2.87261 21.8315 -4.22122 -1.5304
419 140 2 -2.1468 -0.129118 -0.494955 18.408 -4.54639 -4.70957
372 124 2 -1.5869 -6.1372 -0.17047 5.8499 10.7024 -2.35673
150 50 2 -5.23328 -1.08613 3.12887 -19.3827 -12.9841 -0.310591
148 50 1 -5.96572 -1.03049 2.37756 17.6094 8.08868 6.09923
180 60 2 -5.91115 -2.75066 -2.69747 8.35872 3.35883 -3.40708
486 162 2 -1.31107 -3.76115 -1.42708 -2.11859 -11.9188 14.6126
484 162 1 -1.07538 -3.22676 -2.25184 11.5293 17.7084 -23.3666
485 162 2 -0.29717 -3.65566 -2.77712 -7.40416 -8.0689 11.1181
450 150 2 -6.94634 -4.08018 -1.09188 -10.1502 3.82788 2.21931
51 17 2 -7.32127 -4.0668 3.23266 14.0403 -1.38347 4.14254
50 17 2 -7.09026 -2.43396 2.89123 2.08224 -0.686498 2.42503
61 21 1 -6.89444 -6.7147 1.09656 -15.6143 31.5523 6.00121
63 21 2 -6.80636 -6.032 1.86162 11.1247 -17.9069 1.70681
62 21 2 -7.15578 -6.03209 0.358885 0.331149 -10.5951 -3.57926
599 200 2 1.8785 -5.32547 -2.50789 -10.9659 16.8822 -12.5576
598 200 1 1.07789 -5.049 -3.14297 -3.06461 -4.96537 15.2729
305 102 2 0.480928 -6.53496 -2.97494 -0.0127802 -10.0879 -6.55475
255 85 2 5.49304 -3.79643 -2.85085 2.46982 -24.2667 -24.9366
269 90 2 5.30303 -7.30449 -2.11601 12.8009 0.214904 -1.9028
21 7 2 3.97821 -0.348706 -2.88863 6.74901 2.14223 -15.1429
19 7 1 3.35613 -1.16056 -2.93336 -23.4902 16.5644 5.61814
20 7 2 2.42 -0.771303 -2.78742 1.68426 -1.43217 -1.83744
303 101 2 0.242095 -4.70944 2.88858 -10.8846 -2.4862 3.47228
56 19 2 6.57417 -5.70931 -2.88897 -2.85851 -10.2366 -2.89973
55 19 1 6.85488 -6.70154 -2.7751 -20.7637 8.04759 3.27603
548 183 2 3.61707 -6.32175 -1.50204 -5.80498 10.6766 2.02518
547 183 1 3.09311 -5.40552 -1.42582 2.63128 1.4726 21.0309
277 93 1 3.73636 -1.00618 0.964383 -3.11274 -18.6464 -12.5403
448 150 1 7.05562 -4.57503 -0.464657 6.57732 -3.47875 -1.94128
449 150 2 6.15958 -4.0906 -0.418727 1.74878 3.75765 -2.38374
549 183 2 2.82546 -5.30286 -0.419318 -4.07943 -6.18932 -13.1777
18 6 2 3.92758 -2.20585 -2.01276 -9.28179 -0.628852 -13.1996
17 6 2 4.04889 -3.79632 -1.30484 -16.3827 -6.15166 -9.34052
16 6 1 4.46717 -2.87738 -1.44727 31.642 -10.5841 33.6713
278 93 2 3.99111 -1.75656 0.282936 -2.53115 13.2687 12.9918
93 31 2 2.56452 -5.94862 2.00466 -2.37382 -14.425 -19.4236
157 53 1 3.5574 -6.97574 2.82173 -17.4058 21.0493 18.9614
354 118 2 0.517884 -0.348563 -1.03951 20.7004 -3.82047 4.82761
91 31 1 2.07747 -5.42857 1.24451 1.275 -31.1851 5.76223
92 31 2 2.01622 -4.52543 1.70198 -0.178765 28.0176 -7.48487
101 34 2 2.1601 -0.24568 3.0449 -12.1064 18.1211 14.5617
279 93 2 3.98247 -0.108419 0.474232 10.3663 -13.1152 6.6131
6 2 2 3.43065 -3.65154 2.62445 6.45805 3.99712 8.48375
4 2 1 2.67134 -3.14404 2.16085 -14.9608 -6.84686 11.577
5 2 2 2.97412 -2.24147 1.82191 10.1456 17.1173 -5.68612
30 10 2 4.71097 -0.596529 2.32458 0.131363 -4.68012 2.52298
261 87 2 -4.81393 6.41629 -2.06779 -1.82071 29.2871 -26.802
259 87 1 -4.6748 7.09547 -2.87218 -17.1066 -18.0979 29.4205
287 96 2 -2.88727 6.88281 0.282563 -16.4867 3.39243 7.01477
286 96 1 -3.78661 6.74898 0.803938 21.4333 -11.5292 -10.0325
232 78 1 -5.24281 1.4957 0.510919 -3.20659 5.60884 10.2185
233 78 2 -4.48411 0.997723 0.0389916 3.68852 2.15724 -5.71497
418 140 1 -2.77842 0.660576 -0.417605 -14.4422 3.15011 7.24791
420 140 2 -2.36185 1.4877 0.0684859 -2.64801 -0.851886 -12.1542
288 96 2 -3.71184 7.28505 1.68957 -3.08525 3.3852 -1.05201
234 78 2 -5.77097 2.08432 -0.137143 -4.14585 -6.04815 -1.53963
593 198 2 -1.1295 5.26822 -2.24434 -4.72956 7.3613 -6.7118
53 18 2 -5.57496 4.54909 -1.88035 6.0773 -26.0322 -15.1437
167 56 2 -0.447992 6.43869 0.0992199 7.54817 4.17339 6.70735
594 198 2 -0.168882 4.8732 -0.984893 -11.8668 -4.03405 -3.87951
592 198 1 -0.890865 4.49967 -1.64707 18.0088 -11.2016 10.2946
340 114 1 -5.8673 5.83219 -0.803754 -12.5185 -0.633475 -11.73
342 114 2 -6.6627 6.50005 -0.658732 25.9542 -14.8517 8.11232
561 187 2 -2.09923 2.73532 -2.73089 11.7419 7.15669 3.0183
559 187 1 -3.01779 2.32591 -2.74603 -14.2166 9.5086 -14.3417
573 191 2 -2.19032 3.729 1.26688 -4.47183 11.9493 19.0671
341 114 2 -5.04585 6.01038 -0.19855 -9.17043 11.9791 11.0234
560 187 2 -3.02034 1.45721 -2.23819 1.17804 -11.9158 15.5399
565 189 1 -3.1902 4.67033 2.77904 4.34965 -4.50824 -16.7165
567 189 2 -3.46167 5.13241 1.89956 0.577617 2.53277 5.20063
572 191 2 -1.37894 3.41121 -0.13896 -27.5879 -5.54128 11.6658
571 191 1 -2.13995 3.07672 0.507875 34.3458 -4.00261 -26.5927
54 18 2 -4.50515 3.36439 -2.53512 20.2385 -9.52578 1.10789
52 18 1 -5.4312 3.76747 -2.58206 -30.67 32.8388 13.915
390 130 2 -6.13811 2.95763 1.97064 -0.377162 -8.63325 -6.95243
388 130 1 -6.7981 2.94972 2.74588 -17.3076 10.2109 -10.5978
615 205 2 -1.39556 1.87746 2.93958 -0.205089 -10.0471 -1.92014
326 109 2 -2.94778 0.480715 1.38246 -2.69578 -3.42181 1.24293
327 109 2 -3.34744 1.69408 2.36401 -16.1435 29.6846 0.355704
325 109 1 -2.99035 0.774255 2.36156 17.4755 -26.8641 3.53805
268 90 1 4.39991 7.06262 -1.72364 -8.3015 -9.25834 -1.5514
310 104 1 1.21521 1.41639 -2.81779 0.953619 -5.30349 -8.46462
311 104 2 0.805208 1.40958 -1.86638 16.4557 10.6543 -11.4614
304 102 1 0.223031 7.0942 -2.92839 -20.6621 -2.54998 20.5102
159 53 2 4.40291 7.27577 2.43955 15.5167 -7.3374 1.8949
312 104 2 1.9891 2.05312 -3.0789 -15.4924 -6.78034 14.0952
333 111 2 6.93504 3.16738 -1.31971 6.99812 -4.17213 -21.3058
389 130 2 6.90079 3.21211 2.39353 21.1064 -5.17959 10.0652
331 111 1 6.92138 2.63669 -0.466749 -10.2452 31.7161 20.1987
270 90 2 4.30272 6.03275 -1.82285 7.83593 7.0649 1.73207
296 99 2 4.69244 4.24567 1.30576 -0.00452227 -3.73844 -0.696168
166 56 1 0.353219 5.79998 0.276199 0.207373 -15.1004 -1.40802
274 92 1 1.91676 0.597452 -0.222149 -26.5885 2.84314 -9.6963
275 92 2 2.06517 0.00351022 0.598584 10.699 3.17735 -1.06423
168 56 2 1.14811 6.25844 0.703663 2.2213 8.53388 3.55487
276 92 2 2.71797 1.10186 -0.588739 10.5155 -2.50318 7.74884
332 111 2 6.60381 3.41535 0.157155 1.36275 -16.7764 -1.80202
295 99 1 5.52904 4.60197 0.80239 -11.7069 -30.7094 -16.1304
398 133 2 4.53784 4.05833 -0.992713 9.60368 9.29708 -8.24084
530 177 2 5.46973 1.60922 -0.172105 16.9296 -10.575 -14.087
297 99 2 5.78234 5.42103 1.31973 12.1488 22.2855 18.88
531 177 2 5.26594 0.176085 -1.19 15.7456 12.6618 2.35615
529 177 1 4.95167 0.743975 -0.40105 -27.3999 8.28584 -1.44946
397 133 1 4.57759 4.38879 -1.97047 -16.2669 -11.5381 19.6689
399 133 2 3.62637 4.25495 -2.36668 6.96256 6.28277 -9.73856
462 154 2 6.79073 6.91014 2.1943 -5.6038 -15.0876 9.85676
460 154 1 6.19748 6.28468 2.7927 7.15799 19.4534 -27.8971
587 196 2 2.52203 3.18086 1.80819 5.8147 10.0546 -11.8927
588 196 2 3.45661 3.05076 3.00149 16.5679 8.23722 -1.28849
586 196 1 3.46325 3.48432 2.07005 -23.9121 -20.262 15.4999
375 125 2 -4.05411 -5.8972 3.56409 -16.371 -0.413389 0.942933
591 197 2 -5.51647 -4.81525 4.70826 -11.3001 -7.47769 -16.139
589 197 1 -6.02993 -5.44608 4.03195 15.5524 29.0101 -10.1379
590 197 2 -6.72568 -5.91195 4.57775 -11.8992 -16.2255 12.2899
302 101 2 -0.845777 -3.92004 3.86047 2.09529 -22.1743 -18.5436
110 37 2 -5.44071 -3.28 6.35949 -13.5533 15.8342 20.0396
109 37 1 -4.96051 -3.47229 5.51168 16.7168 -28.7528 -25.1986
111 37 2 -4.64361 -2.65638 4.97328 -4.90663 13.6011 7.81212
138 46 2 -3.53608 -5.87117 9.20595 -7.16438 -0.470142 -17.3399
402 134 2 -2.95492 -0.29748 7.67823 14.0931 14.6753 8.98031
136 46 1 -4.36256 -6.341 8.81031 20.6524 19.5443 18.8665
47 16 2 -4.69771 -6.16061 7.00946 5.98159 -5.80232 6.28821
137 46 2 -4.72415 -6.75583 9.66452 -11.545 -14.0117 4.65995
293 98 2 -6.50346 -6.71325 7.7534 8.13762 4.09588 -5.81539
192 64 2 -4.64128 -0.128762 4.87491 -14.1928 -8.34116 3.63183
190 64 1 -4.36841 -1.00457 4.38302 23.2878 -2.39758 1.71304
191 64 2 -3.48812 -0.763849 3.93252 5.35084 0.403846 -3.06379
417 139 2 -0.502417 -6.6936 9.63104 0.314929 -11.5568 -23.9647
46 16 1 -5.0957 -6.74723 6.26832 -17.4139 2.95559 1.77494
48 16 2 -4.40142 -7.2881 5.79388 13.2115 -5.01783 -4.76676
415 139 1 -0.231289 -7.04277 8.66611 19.284 -4.66716 9.29048
49 17 1 6.90195 -3.14338 3.27183 -14.6004 7.54047 -7.44557
158 53 2 3.70659 -6.34539 3.63267 5.65988 -12.7079 -12.018
346 116 1 3.71435 -6.60139 6.26121 22.2621 -13.281 -15.34
347 116 2 4.07234 -5.77771 6.73192 -3.91285 11.3706 5.73158
582 194 2 6.69181 -3.76512 8.49677 -4.04107 4.00223 6.22202
562 188 1 0.353932 -1.76135 5.72643 -22.5692 32.6161 -4.12364
563 188 2 0.564982 -2.74347 5.64196 11.4027 -19.7891 -10.2755
564 188 2 1.02418 -1.38001 6.39573 1.58805 0.710165 8.50242
496 166 1 4.41225 -4.22872 3.99458 -7.41649 -5.28195 -4.20685
498 166 2 4.40079 -4.07642 5.01905 0.903059 0.78884 0.82375
113 38 2 5.13244 -3.63236 6.95665 -0.344227 -1.53659 -1.16509
577 193 1 1.64248 -3.89655 5.06708 3.85505 -21.7757 2.8628
578 193 2 1.85174 -4.71576 5.64623 -12.1804 0.372181 -0.294634
579 193 2 2.50869 -3.68901 4.58976 6.5571 7.11109 -7.79824
497 166 2 5.32984 -3.9653 3.62154 7.14257 6.6649 3.98078
314 105 2 0.973785 -6.97428 5.38482 -24.7108 -4.28559 23.2804
313 105 1 0.84648 -6.38051 6.23638 35.0702 16.9136 -15.7532
114 38 2 3.57913 -3.57615 7.48816 -6.69828 1.38684 4.7065
112 38 1 4.14784 -3.77815 6.66854 16.3914 -5.619 0.431308
315 105 2 0.237441 -6.62705 7.0285 -6.96999 -14.0758 -3.37744
72 24 2 1.42389 -4.31336 8.43169 -2.84045 2.74351 -1.41006
70 24 1 2.08705 -3.64862 8.82379 9.0545 4.86253 1.74817
71 24 2 1.94867 -2.68883 8.46132 -6.17311 -1.05339 -3.34582
294 98 2 6.79669 -7.31059 8.46627 -4.15668 18.5543 -12.0872
292 98 1 7.12139 -6.65667 7.70827 1.6153 -23.4582 30.3158
440 147 2 6.84792 -7.03069 6.1452 6.93991 3.46886 18.035
439 147 1 6.34966 -7.27873 5.29461 -13.2076 1.50785 -24.0512
441 147 2 5.3859 -6.98179 5.49857 -2.72988 -5.4635 -0.289264
348 116 2 2.73106 -6.76425 6.41117 -16.7246 5.09916 6.17789
28 10 1 5.10985 -0.617476 3.27354 8.3476 -8.01379 5.9396
291 97 2 2.87744 -0.881239 7.36065 4.83485 -6.3097 -2.7387
289 97 1 1.94493 -1.0923 7.74054 20.0132 -9.96662 -1.52572
513 171 2 5.45256 -0.0781166 7.02168 -9.94966 -9.23642 1.54341
511 171 1 4.82348 -0.896544 7.06775 15.1673 5.53661 -21.4581
512 171 2 4.91458 -1.33033 6.12346 -6.98727 6.90608 24.6349
29 10 2 5.67836 -1.47647 3.39385 -5.02133 13.4841 -3.00677
290 97 2 1.58271 -0.163714 7.894 -13.7023 17.7683 7.72484
404 135 2 4.82901 -0.541421 8.84 19.5435 1.53032 25.9422
581 194 2 7.13029 -4.9749 7.45634 -9.60687 18.7261 1.18843
580 194 1 6.8761 -3.95861 7.50244 5.41866 -20.9362 -9.72069
566 189 2 -3.69406 5.10825 3.53069 -4.89801 10.4916 3.99264
321 107 2 -0.0497581 5.27285 4.72719 2.80677 7.78458 0.602429
320 107 2 -0.423135 6.66838 3.9303 7.14451 -0.474912 1.42667
604 202 1 -5.74775 0.968511 5.39433 1.80995 3.30832 -11.5169
605 202 2 -5.56797 1.91858 5.06455 -5.33208 4.54965 10.4064
606 202 2 -6.21844 0.871997 6.29574 -2.46312 6.17441 2.26029
493 165 1 -0.257336 3.59397 8.94937 -18.2318 -18.5677 12.2156
400 134 1 -3.66147 0.396072 7.45737 -42.1881 -4.44209 -5.86983
401 134 2 -3.67797 1.40375 7.70301 28.5228 -10.7715 -0.461684
156 52 2 -6.82538 0.103425 9.01782 8.42632 -3.45952 -9.71412
546 182 2 -4.15396 3.88232 4.59232 2.80046 -9.10724 -5.70274
545 182 2 -5.63806 3.53877 3.76538 0.710336 2.94788 13.3018
544 182 1 -5.16673 3.84247 4.65101 -4.44863 0.376656 -2.74055
494 165 2 -0.825806 3.7313 8.11413 6.58289 0.907789 -7.00516
155 52 2 -5.5998 0.173734 7.84333 12.5695 -5.54324 1.47451
154 52 1 -6.56879 0.397197 8.06649 -16.5372 8.0064 4.42822
26 9 2 -2.33045 3.23284 6.73534 -10.1162 -3.31337 13.8448
25 9 1 -2.96132 3.1183 7.55593 22.7224 -18.7711 -24.4482
27 9 2 -3.11042 3.99685 8.02716 -12.3735 18.8225 4.03193
189 63 2 -6.50003 5.9551 6.62062 4.3861 -6.7706 7.90247
187 63 1 -5.98682 5.09172 6.84706 -17.3587 19.3055 -5.70309
188 63 2 -5.74592 4.74281 5.9074 5.21418 -16.3932 -0.783429
23 8 2 -0.59681 3.2573 4.72493 9.36666 -11.529 6.99536
213 71 2 -7.051 1.99866 8.43499 6.88829 -2.59719 -13.6879
22 8 1 -0.540073 3.64814 5.68873 -16.8663 11.6942 8.72432
211 71 1 -7.17603 2.99765 8.62489 -7.14437 16.5003 13.8571
212 71 2 -6.70125 3.63917 7.96848 -2.41358 -9.14467 0.464328
613 205 1 -0.574453 2.18552 3.45543 -6.59478 20.879 1.08049
162 54 2 -4.63897 5.43601 9.67608 -16.0581 8.44285 2.48544
161 54 2 -4.92047 5.22056 8.01208 -6.1328 -1.12124 -0.990115
160 54 1 -4.24191 5.13628 8.79298 15.0442 -5.53318 9.99882