ITEM: TIMESTEP
39500
ITEM: NUMBER OF ATOMS
648
ITEM: BOX BOUNDS pp pp pp
-7.2539821381688574e+00 7.2539821381688574e+00
-7.2539821381688574e+00 7.2539821381688574e+00
-1.6119960307042078e+01 1.6119960307042078e+01
ITEM: ATOMS id mol type x y z fx fy fz
644 215 2 -1.33722 -4.95166 -11.3431 -7.85692 -23.1526 -16.9863
643 215 1 -1.10716 -4.51236 -10.4704 8.97616 3.41457 12.6655
645 215 2 -1.4129 -3.57498 -10.678 -7.66968 16.3158 5.66156
242 81 2 -0.603558 -6.47349 -15.3176 3.72485 -7.35916 1.29564
243 81 2 -1.22181 -4.969 -15.6118 -4.98296 -0.890356 0.155153
241 81 1 -1.43122 -5.89472 -15.1961 0.451989 4.08901 -10.0733
637 213 1 -3.45935 -2.67203 -10.9749 37.8084 26.9146 2.84111
639 213 2 -3.80824 -1.70313 -10.9467 -12.8575 -3.35142 3.43863
638 213 2 -4.13304 -3.42233 -10.8655 -14.9921 -6.50476 -7.7483
368 123 2 -4.18467 -5.62166 -11.4626 0.576058 14.0381 -7.69806
367 123 1 -4.88029 -4.85741 -11.4419 -3.37538 -20.9977 13.4221
430 144 1 -1.46105 -1.75435 -12.7544 18.1256 8.3556 62.5567
432 144 2 -2.25877 -1.85526 -12.0892 8.6208 -4.18878 -16.5274
385 129 1 -3.51814 -2.31519 -15.162 -7.75602 -4.12747 -6.87627
431 144 2 -1.73659 -1.92485 -13.6745 -23.1795 -8.01215 -45.4789
386 129 2 -3.94274 -3.00298 -15.7886 -1.35408 -2.77269 1.28539
621 207 2 -2.59667 -6.03492 -13.5695 4.80955 5.31599 -30.4702
369 123 2 -5.51149 -5.03332 -10.6592 -1.74981 2.04229 3.47838
343 115 1 -7.03916 -2.07771 -11.7376 -1.76982 5.92531 -23.1699
344 115 2 -6.80569 -2.34729 -10.7871 -6.54817 -9.07469 14.0661
2 1 2 -6.42438 -5.54053 -13.6524 -20.6662 8.56213 3.00894
1 1 1 -6.96052 -4.90037 -13.0446 37.8558 -12.358 -7.26692
3 1 2 -6.14019 -4.65326 -12.4264 -24.8009 3.32977 -5.3216
387 129 2 -4.31892 -2.05575 -14.5313 19.1413 9.80317 -3.48858
620 207 2 -2.59226 -7.14221 -12.3204 9.03733 23.6034 -7.54046
619 207 1 -2.49945 -6.13576 -12.5821 -7.4001 -29.6294 43.5598
360 120 2 -5.1546 -0.288991 -13.0252 4.43115 1.40247 2.66487
358 120 1 -5.16462 -1.17593 -13.5176 -5.4273 7.117 4.99055
359 120 2 -5.69077 -1.79196 -12.8891 -8.65051 -2.57434 1.85079
354 118 2 -6.62923 -6.93822 -9.99762 0.041786 2.49274 8.60557
453 151 2 -5.74596 -4.7748 -15.9059 0.847494 -6.11587 -7.75985
38 13 2 0.694448 -5.82375 -13.0516 12.7732 5.47994 7.75314
37 13 1 0.736123 -6.62834 -12.412 -13.2111 0.669702 -17.9751
284 95 2 0.356097 -3.62487 -13.5619 -8.3464 -5.55833 0.459987
285 95 2 1.91509 -3.37133 -13.5285 0.36212 -12.7015 -4.19896
283 95 1 1.22171 -4.1522 -13.6487 -6.51469 19.595 11.0491
345 115 2 6.62308 -2.55901 -12.0744 4.50277 1.0166 9.78232
44 15 2 4.27103 -5.34978 -10.1085 6.85422 6.33192 5.34027
14 5 2 4.52561 -6.44545 -13.1741 0.780831 19.26 28.6537
13 5 1 4.96272 -6.84992 -13.9698 -8.15771 -33.5086 -45.5386
15 5 2 5.89335 -6.58499 -14.2641 6.47846 12.8017 14.6511
557 186 2 3.08379 -1.30687 -13.3244 -3.98609 1.40875 -0.15288
264 88 2 1.69853 -4.27936 -15.1196 -0.795479 0.40238 21.1339
363 121 2 3.89686 -7.24509 -15.7968 17.686 -9.49399 16.7338
556 186 1 2.99963 -2.245 -13.696 27.285 -9.64777 3.81597
558 186 2 3.70301 -2.81519 -13.1685 -5.23061 7.29852 -7.64797
348 116 2 4.69895 -4.28373 -11.8422 -0.748205 -2.49039 6.04233
346 116 1 5.06609 -3.46193 -12.3529 15.3524 -4.41322 -22.6663
45 15 2 4.06457 -6.67076 -10.9743 -12.9245 -27.5679 -5.78137
43 15 1 4.31255 -5.70168 -11.0643 3.8277 21.6689 -6.74511
116 39 2 5.09362 -1.16971 -11.0966 13.2357 -0.532762 -5.89635
459 153 2 1.36518 -0.369804 -12.7033 -7.30684 16.1119 6.94297
347 116 2 5.82414 -3.85236 -12.9569 -10.1324 3.58879 13.1728
82 28 1 1.35036 -1.58796 -11.5655 5.89251 -12.5768 11.2348
115 39 1 4.67 -0.636118 -10.3538 -18.6886 -11.3323 -4.20754
84 28 2 0.358223 -1.4759 -11.8096 -3.88306 -11.3882 6.79865
185 62 2 4.17621 -2.30285 -15.6628 0.785339 -2.0924 -6.11875
247 83 1 0.00676778 -0.304175 -15.75 -8.79423 -3.62028 27.8432
349 117 1 0.779226 -6.44271 -9.7258 -1.47213 24.9491 -9.70274
351 117 2 0.0714192 -5.72566 -9.83511 -17.3955 16.1486 12.0155
350 117 2 0.967453 -6.47243 -10.7302 15.6205 -13.3203 -16.623
117 39 2 4.07037 -1.33209 -9.88627 7.75115 2.72231 8.48292
83 28 2 1.57944 -2.36624 -10.9306 -9.05928 7.34659 -6.00607
262 88 1 1.99407 -4.34302 -16.094 10.3425 -13.9299 -31.8781
332 111 2 -3.16175 0.323276 -10.314 -5.79305 3.22242 4.30416
228 76 2 -0.773109 4.9956 -15.7223 16.3448 13.9103 2.40951
175 59 1 -5.64824 5.4005 -10.4628 -9.62512 1.64456 -22.9734
176 59 2 -5.76648 5.25172 -11.4903 6.6104 4.57506 19.0371
145 49 1 -1.03902 5.90736 -11.5854 -23.3765 16.1 14.0532
146 49 2 -0.548571 6.31161 -10.7706 6.69397 -11.8842 -15.6525
147 49 2 -0.68113 5.0707 -12.0411 12.8188 -11.3976 2.62051
318 106 2 -2.21797 5.15132 -10.3878 2.2137 2.30886 -6.47098
585 195 2 -1.74577 2.80624 -15.3546 5.2747 -5.64256 -0.462257
583 195 1 -1.86925 1.96912 -14.7674 -6.94649 14.4153 -6.78345
584 195 2 -2.87463 1.77947 -14.7517 -0.301199 -5.78888 3.77733
29 10 2 -4.24866 3.85653 -12.2802 1.51063 -28.4259 11.3589
516 172 2 -2.06259 3.23611 -12.084 -2.99589 1.16017 9.75756
28 10 1 -3.78019 3.02662 -11.8378 19.7927 42.1291 -18.0614
30 10 2 -4.3635 2.32622 -11.4253 -20.0461 -8.60344 2.45388
514 172 1 -1.09968 3.19173 -12.4424 -17.6742 -4.80845 -10.0612
355 119 1 -4.35812 4.38326 -16.0044 -8.47204 -3.40463 9.30943
357 119 2 -3.40227 4.72836 -16.1036 13.3573 -2.43415 -3.28727
265 89 1 -5.20293 5.23876 -13.4864 32.0079 -24.4331 -33.1874
456 152 2 -0.352905 2.30313 -10.7983 25.0044 -20.6865 -2.15657
267 89 2 -6.20966 5.21361 -13.7459 -4.04866 2.19245 2.99919
266 89 2 -4.68961 4.89179 -14.3636 -25.3576 20.3912 39.9317
177 59 2 -4.685 5.20384 -10.1835 6.50846 -0.396879 1.80399
515 172 2 -1.35642 2.7562 -13.3516 17.8616 -0.799173 4.07705
392 131 2 -5.98183 2.15644 -14.9065 -5.72931 11.4024 4.23167
331 111 1 -4.08607 0.0977838 -10.7199 -8.60474 3.74466 -1.74252
333 111 2 -4.85333 0.689136 -10.3479 9.99676 -8.78707 -3.34488
622 208 1 -6.36882 1.79288 -9.82242 20.4548 -12.7665 -3.08699
356 119 2 -4.36628 3.39808 -15.7045 0.924656 0.566758 -0.823242
391 131 1 -5.03195 1.8745 -14.6951 -1.44128 14.5298 -9.96954
393 131 2 -5.14469 0.882202 -14.714 9.86676 -27.8612 1.11834
249 83 2 -0.870715 0.21893 -15.6401 9.05567 2.82299 -6.96818
129 43 2 -7.1139 0.0886735 -15.7712 3.46577 -11.4532 -5.02492
617 206 2 2.25347 6.01377 -12.6971 -0.172619 26.2045 8.39382
39 13 2 0.051156 7.22556 -12.8208 8.14769 0.660481 13.1909
458 153 2 0.0902525 0.557213 -13.1961 -0.39297 2.28671 -6.6123
457 153 1 1.03947 0.619305 -12.8203 14.2779 -1.98591 -18.9181
199 67 1 0.734834 6.3482 -15.5377 9.46508 19.7366 -28.081
454 152 1 0.376326 1.59029 -10.5345 -29.0349 27.4407 24.6542
616 206 1 1.97645 5.32204 -13.3702 13.2271 -22.4762 12.1644
618 206 2 2.45147 4.49939 -12.9109 -13.4738 5.22291 -19.8909
201 67 2 1.27674 5.93983 -14.7595 0.9551 -3.95866 5.9919
220 74 1 3.50949 6.19595 -10.9088 11.1356 15.808 -3.93572
455 152 2 0.766769 1.19885 -11.4027 -2.84398 -3.43332 -10.743
221 74 2 2.92859 5.41537 -10.5895 2.90801 -9.80752 7.04671
222 74 2 4.49098 6.11606 -10.5807 -6.0976 -10.9974 -2.21407
523 175 1 2.8829 3.00286 -12.6316 12.6812 -12.3496 29.8763
525 175 2 3.30912 2.94282 -11.6727 -15.0049 7.28732 -27.0267
174 58 2 3.44931 2.35684 -14.5574 1.08835 6.76035 -0.542727
524 175 2 2.10799 2.33208 -12.6834 -1.94965 -0.340979 2.32904
509 170 2 7.17728 5.45784 -10.0796 -2.63679 0.0977575 -5.44765
510 170 2 5.84876 4.5272 -10.3695 -0.969121 -9.47133 0.744771
508 170 1 6.15911 5.49258 -10.2602 0.382348 9.01232 4.21434
142 48 1 1.62238 3.49322 -15.4792 -5.11743 25.0789 -31.0129
144 48 2 1.71363 3.68348 -14.4881 -0.0911575 -3.34791 11.7483
143 48 2 1.64642 2.54658 -15.8168 3.26418 -24.4094 10.0805
172 58 1 3.41999 1.37561 -14.8234 4.36225 -12.9524 9.44217
553 185 1 5.57671 2.76785 -9.87143 -37.907 -36.3176 -6.01822
173 58 2 3.03946 0.895368 -14.0034 -1.99757 0.865079 -11.2462
555 185 2 4.87738 1.98309 -10.0507 33.9585 31.2095 9.36785
610 204 1 2.44488 3.89258 -9.87279 -2.82458 -6.57724 27.399
520 174 1 6.78921 5.11686 -14.2 -29.4538 -0.307003 -35.8159
521 174 2 5.87443 5.55044 -13.9634 20.1107 -6.08858 2.78326
522 174 2 6.63132 4.69452 -15.1687 2.69786 9.32318 39.1794
572 191 2 5.088 1.21804 -15.091 39.9188 10.7379 -0.113757
624 208 2 7.17164 1.97941 -10.0889 -10.25 4.77625 -3.96377
60 20 2 3.19431 0.410301 -10.121 3.86528 -6.82085 1.37929
573 191 2 6.14378 2.3517 -15.6991 -2.76727 3.32705 2.89907
571 191 1 6.1265 1.46948 -15.1657 -33.9293 -14.1178 -5.4495
131 44 2 -6.23591 -3.67475 -8.6705 6.94736 -13.8773 4.66776
130 44 1 -6.86873 -3.07887 -9.20507 -0.0533444 -0.155214 -12.5953
132 44 2 -6.45335 -2.15288 -8.99296 -11.5393 9.95252 0.454351
81 27 2 -3.39015 -4.49512 -7.97771 -6.98919 -1.20041 1.29426
627 209 2 -5.15435 -4.28596 -6.89485 9.82485 -15.6957 -6.3371
625 209 1 -5.06645 -4.50838 -7.91417 -11.9314 -10.5927 -14.0113
626 209 2 -5.4776 -5.42525 -8.2188 5.1639 22.3834 14.2289
80 27 2 -1.8523 -4.3847 -8.73861 -15.8829 -3.11762 14.4573
79 27 1 -2.39864 -4.27028 -7.85752 30.9717 11.5707 -19.8238
490 164 1 -6.05221 -0.754141 -8.39326 -21.7073 5.35735 -14.3314
491 164 2 -5.27956 -0.617747 -7.79456 33.29 1.69662 22.4228
135 45 2 -3.41105 -1.9233 -7.6886 9.89992 0.109127 -7.68286
134 45 2 -2.65358 -0.365288 -8.02706 3.87685 -8.6651 -12.1522
304 102 1 -0.295288 -2.63782 -6.52883 3.78976 -32.596 -18.9329
133 45 1 -3.25574 -0.947122 -7.43466 -16.8354 4.81071 20.7239
57 19 2 -3.88364 -4.91575 -4.71802 17.5349 -6.54293 -1.07113
55 19 1 -4.58542 -4.5142 -5.3174 -14.8412 11.2198 5.72145
56 19 2 -5.45863 -4.78108 -4.87708 -9.39808 -3.89588 -1.24676
306 102 2 -1.13356 -2.61804 -7.12206 -0.246468 3.0043 11.1371
68 23 2 -6.54808 -7.13203 -5.27256 17.9034 6.63987 4.44158
67 23 1 -6.25114 -6.74058 -4.34959 -31.0379 -9.17084 -0.426556
381 127 2 -7.05364 -2.09948 -7.02348 -0.435109 11.9627 -8.61908
69 23 2 -7.13673 -6.24848 -4.09045 26.8297 -0.616228 -3.17139
122 41 2 -6.66562 -6.84297 -7.8536 2.79806 -19.1782 10.8732
473 158 2 -1.60128 -6.68565 -6.83947 13.9308 -9.62629 19.5277
472 158 1 -0.74521 -6.78355 -6.2256 -14.3389 -18.6181 16.2511
352 118 1 -6.74544 -6.2389 -9.24649 7.86267 -9.75323 -23.0319
321 107 2 -4.6172 -6.94173 -3.99863 -3.92993 0.531853 -12.0582
319 107 1 -3.61707 -6.78395 -3.79526 -8.68424 0.852205 27.247
305 102 2 0.127146 -3.55647 -6.80986 -9.44626 21.591 10.946
438 146 2 1.34343 -5.58851 -8.02499 -5.76534 -3.39595 -0.472475
532 178 1 5.27274 -4.91049 -8.58703 9.85782 -12.8018 17.3977
342 114 2 0.30979 -2.20193 -5.03453 -7.90649 1.79237 4.22488
534 178 2 5.98865 -4.15938 -8.68774 -6.10177 -5.87658 8.42833
533 178 2 5.20995 -5.33093 -7.61295 0.382318 18.4175 -22.0423
341 114 2 0.39 -2.41574 -3.33366 -11.9865 4.33007 -0.454659
9 3 2 3.01963 -2.79865 -7.93958 11.1868 -0.52964 -12.2589
340 114 1 0.837951 -1.9971 -4.15984 15.1204 -1.08359 -7.92077
380 127 2 6.01606 -2.13277 -6.12011 -8.90866 9.98221 1.28843
379 127 1 6.8093 -2.66694 -6.49247 9.81888 -19.8978 8.8277
538 180 1 2.53531 -2.8987 -6.1841 -15.4781 -17.6749 6.33446
540 180 2 1.95414 -2.5966 -5.37635 7.81973 3.94953 -7.91286
539 180 2 2.07965 -3.77994 -6.50873 11.0413 12.0519 0.846081
183 61 2 6.04506 -4.1864 -4.10208 -5.89968 5.30867 6.23545
182 61 2 6.95597 -3.99185 -5.49064 -5.6642 6.27612 -0.246418
420 140 2 5.52314 -5.41675 -5.59689 8.64887 6.8404 10.6682
418 140 1 4.68225 -5.7733 -6.05827 -14.7953 -16.439 -15.8078
181 61 1 6.66686 -4.66997 -4.76085 7.66283 -2.85349 0.303859
268 90 1 4.69001 -1.4225 -5.38644 -16.6066 -12.8385 3.27847
269 90 2 4.65125 -0.385025 -5.31014 0.32524 -6.3855 -7.23617
419 140 2 3.90479 -5.83946 -5.39177 2.3214 4.2426 1.61939
198 66 2 1.86974 -5.5207 -3.26754 12.1497 -5.25303 -8.21402
196 66 1 2.46439 -5.69315 -4.12245 -6.86177 -0.116736 14.1938
197 66 2 1.85682 -5.48603 -4.90659 -2.13869 1.25315 -9.64293
287 96 2 4.48981 -2.84513 -3.6267 -10.4219 -3.75806 -0.0865438
276 92 2 1.22503 -0.307735 -4.02861 3.9461 -9.7883 -8.13517
270 90 2 3.79651 -1.86702 -5.7266 18.905 12.1858 3.14362
436 146 1 1.10691 -5.25487 -7.08523 25.4647 21.5543 6.64816
437 146 2 0.515811 -5.96485 -6.60308 -13.2699 0.0845782 -9.19208
8 3 2 4.0909 -3.86645 -8.68155 -7.7095 24.0604 -6.05312
7 3 1 3.51602 -2.99406 -8.8344 -8.18986 -9.1043 14.6895
353 118 2 6.80408 -5.89829 -9.3245 -9.53147 6.31518 1.49217
492 164 2 -6.22613 0.160879 -8.82153 -7.09654 -3.35131 -4.30848
366 122 2 -0.0226389 5.92612 -8.0165 14.4504 -1.62504 1.97103
33 11 2 -3.84097 0.354594 -5.99398 -6.39309 -6.96059 6.42752
476 159 2 -0.923737 0.975204 -9.20722 -25.2969 -6.68417 -5.72698
623 208 2 -6.23779 2.17441 -8.89152 -0.010095 2.30804 9.95593
316 106 1 -2.901 5.05821 -9.63215 -4.70792 -10.2678 16.71
475 159 1 -1.95559 0.801956 -9.11736 16.0484 22.9267 16.7334
477 159 2 -2.35882 1.56626 -8.52802 8.16332 -11.8114 -10.5016
258 86 2 -3.75073 3.66885 -5.2587 -3.11645 -0.205884 -7.33145
257 86 2 -4.14075 5.27614 -4.85528 1.12882 -3.80689 -6.81293
179 60 2 -5.77449 3.65129 -7.33211 21.0508 22.5559 9.71005
370 124 1 -6.63823 2.32693 -7.03451 18.7872 13.6449 -57.342
317 106 2 -2.72937 4.20186 -9.07816 -0.140113 8.63036 -7.59628
371 124 2 -6.67704 1.95808 -6.10192 -8.75043 -7.9542 30.875
178 60 1 -5.17806 4.52498 -7.25557 -8.48787 -13.8945 -9.55875
180 60 2 -4.24279 4.31169 -7.63727 -10.4472 -0.121805 7.71996
123 41 2 -6.19776 6.17962 -7.00984 -2.47233 11.8094 -10.4488
307 103 1 -2.74816 2.94675 -7.31881 33.9318 19.1761 -10.2401
308 103 2 -3.2218 2.25878 -6.72957 -21.5042 -15.0292 7.30308
309 103 2 -1.89661 3.1549 -6.76414 -1.54255 3.21827 -8.67306
535 179 1 -2.9124 7.12455 -7.73254 -43.9213 9.65731 21.0929
536 179 2 -3.90117 7.20062 -7.37798 38.4277 0.627355 -9.0049
537 179 2 -2.91225 6.44284 -8.47685 2.26361 -12.6715 -14.9637
121 41 1 -6.5557 7.15336 -6.93815 0.967868 -10.1668 5.86976
256 86 1 -3.75074 4.38631 -4.54463 2.63528 4.44583 14.0586
474 158 2 -0.894046 7.08629 -5.38578 -3.25796 18.2572 -28.6775
500 167 2 -0.29761 2.76562 -4.95574 3.85119 -3.0074 10.0694
499 167 1 -0.206298 3.32775 -5.79566 -24.0709 0.226933 -15.09
602 201 2 -4.2669 0.775149 -3.27747 1.31074 -0.0373211 1.47921
31 11 1 -4.14039 1.32734 -5.88743 13.5166 13.7379 -6.58628
17 6 2 -6.82213 2.23639 -3.71305 -4.49493 -10.2878 4.14007
32 11 2 -4.80297 1.59135 -5.15617 -6.91579 -15.0864 3.12968
16 6 1 -6.66056 1.57308 -4.49137 13.8548 1.18857 -13.9942
153 51 2 -1.16677 5.03916 -4.20094 1.77348 9.99417 -2.41036
151 51 1 -0.725651 5.97148 -4.18553 -2.78359 -8.78256 4.23563
611 204 2 2.75199 3.02401 -9.41704 1.35822 0.287936 -13.0393
554 185 2 5.46464 3.06956 -8.88316 1.1575 0.450271 -3.0298
612 204 2 1.83957 4.30013 -9.14379 0.532921 11.0266 -12.6983
364 122 1 0.923497 5.9843 -8.41602 -16.3259 -26.969 20.2413
365 122 2 0.91177 6.90895 -8.9035 6.96985 -0.210535 -6.58583
383 128 2 3.37937 6.35131 -7.78024 -0.0875069 3.98594 -0.442871
382 128 1 4.20208 5.92689 -7.34993 -8.51411 -0.211732 1.76909
18 6 2 7.11221 0.875602 -4.65182 -4.54171 2.81458 10.7623
120 40 2 6.84875 4.2008 -4.70383 -12.7454 5.33884 12.2792
118 40 1 5.85249 4.04591 -4.48513 11.9117 -17.2371 -33.2809
59 20 2 1.73952 1.18682 -9.57101 22.6813 -7.25963 -11.8358
384 128 2 4.90349 6.61342 -7.06687 -4.32185 7.17115 -0.874917
58 20 1 2.78091 1.06098 -9.44777 -27.2949 24.0192 13.0209
372 124 2 7.08333 2.87397 -7.37993 -20.66 -0.658562 11.7917
471 157 2 5.25413 2.10374 -4.97398 2.69896 -17.1242 0.29302
469 157 1 5.00584 1.24023 -5.4896 14.973 33.2772 24.7347
119 40 2 5.5197 4.55832 -3.67458 -1.43493 2.16465 13.4817
470 157 2 4.23014 1.58505 -6.05222 -16.208 -13.0219 -14.3203
413 138 2 5.4727 3.48016 -6.34713 -3.64815 11.5798 4.14575
501 167 2 0.630037 3.90703 -5.81042 11.4962 -0.307561 6.35485
412 138 1 5.40088 3.68559 -7.3455 4.98234 -15.9645 -14.8289
414 138 2 4.83464 4.55084 -7.55117 10.0761 -3.36601 13.4748
549 183 2 3.25898 4.47034 -5.96117 7.80714 18.6784 -0.759193
547 183 1 2.46274 4.067 -5.49048 4.18053 -20.2391 -16.6583
548 183 2 2.46596 3.1429 -5.97999 -9.16948 6.42238 15.079
280 94 1 2.68401 1.59912 -6.7855 1.91162 21.6356 14.065
282 94 2 2.03528 1.04307 -6.21732 -1.01542 -4.67401 -3.62633
281 94 2 2.72239 1.36566 -7.78499 -2.17106 -12.1812 -6.52779
275 92 2 0.573714 1.12101 -3.71384 -7.88131 9.96297 0.295233
274 92 1 1.37531 0.69695 -4.17983 0.572573 3.70799 6.61689
152 51 2 0.286505 5.86827 -4.1046 4.44427 -1.23682 2.59187
544 182 1 2.31155 6.08146 -3.38971 1.69586 -4.90443 -14.8622
545 182 2 2.58562 7.0403 -3.63991 -2.52617 0.559407 -4.76297
546 182 2 2.5497 5.41553 -4.15467 -4.70806 6.3083 11.1117
194 65 2 -6.60372 -1.11508 -0.558756 -1.799 -5.57395 -5.65544
53 18 2 -2.73641 -5.68573 -0.491375 -5.91689 0.0146834 5.93368
195 65 2 -6.48601 -1.75429 -2.08675 -11.2256 4.86791 -21.3022
52 18 1 -3.59808 -5.48903 -1.0071 5.37025 -5.85967 -11.2019
193 65 1 -6.18713 -1.85751 -1.14142 11.5414 -3.4303 26.1608
158 53 2 -5.95936 -3.38228 0.184902 21.8312 4.78846 1.65283
54 18 2 -4.35999 -5.18091 -0.397987 1.92017 1.32995 6.74933
159 53 2 -5.87904 -4.72833 1.02766 12.6662 -5.294 10.6434
157 53 1 -5.26884 -3.9707 0.693006 -37.4819 -2.76063 -19.4864
576 192 2 -1.77371 -2.6539 -1.91868 -5.43808 16.2308 -3.11826
565 189 1 -3.20639 -3.08943 1.99412 8.41913 2.51162 1.53847
566 189 2 -4.02236 -3.49624 1.45241 19.1123 6.75251 7.07963
209 70 2 -4.3122 -2.37212 -1.65096 -10.9142 18.8178 -3.60234
210 70 2 -3.55308 -3.59117 -1.15293 7.92276 -26.677 8.2546
208 70 1 -3.37483 -2.73984 -1.6411 0.493787 7.99814 -4.53307
10 4 1 -5.88674 -6.3511 2.02006 -45.4728 -0.789231 -21.8945
11 4 2 -5.82311 -6.71905 2.94939 17.3769 -8.16298 33.1701
567 189 2 -2.25784 -3.42518 1.67344 -19.9696 1.02036 1.80708
598 200 1 -0.712281 -4.03991 1.41684 17.1306 -11.5306 -9.13249
600 200 2 -0.101743 -4.58788 0.790671 -10.7995 9.47088 7.16952
320 107 2 -3.66687 -6.25275 -2.92009 8.55999 3.39537 -2.89425
51 17 2 -3.35953 -1.19225 1.95617 -5.9971 -0.330267 -4.39931
49 17 1 -3.38879 -0.188604 2.18386 17.7794 -13.8926 1.22609
574 192 1 -0.742218 -2.61168 -2.02005 11.8962 -42.1447 12.2512
575 192 2 -0.485693 -3.58877 -1.77189 2.13458 25.8114 -7.45563
599 200 2 -0.322276 -4.23513 2.34368 -4.68447 3.04399 1.73705
12 4 2 -6.93749 -6.40566 1.95969 22.6849 14.3809 -13.4898
261 87 2 -0.781106 -0.0291729 -0.342352 -11.1347 -3.84394 -2.27365
6 2 2 -1.63753 -6.48621 2.68561 -1.78744 7.51817 0.403893
578 193 2 -4.00767 -6.39412 1.84127 -14.4581 24.8391 -14.9052
50 17 2 -2.71693 -0.132646 2.96915 -9.05066 9.05312 5.17421
577 193 1 -3.06647 -6.72135 1.95288 -9.69286 -15.8208 9.33269
504 168 2 6.056 -0.198242 -1.45911 -6.30606 4.1832 -3.29683
498 166 2 5.76701 -1.30967 0.56549 3.48508 14.9105 -3.40286
496 166 1 6.19072 -0.458124 0.161144 2.80108 -2.89705 6.63969
288 96 2 4.14912 -4.33383 -2.70428 -12.865 8.84805 -15.1358
260 87 2 0.35521 -1.17931 -0.830082 -13.6235 1.58057 -1.00713
512 171 2 5.29157 -5.95134 1.02928 -1.56019 -9.23198 3.78879
88 30 1 3.09505 -1.52071 0.731568 -29.8546 18.6761 -19.8849
89 30 2 2.36992 -0.788349 0.564528 19.044 -17.6052 -2.96776
90 30 2 3.49189 -1.37628 1.65263 7.85567 -3.3915 13.606
614 205 2 2.75738 -5.17113 1.55202 1.11741 -6.3024 4.91216
615 205 2 2.37775 -3.97781 0.519757 -2.65864 -12.7086 -0.428173
613 205 1 2.24805 -4.98464 0.695197 -0.672972 21.1052 -5.415
635 212 2 1.44239 -5.66721 -0.953371 1.39583 1.637 -2.32668
47 16 2 1.14788 -1.33303 2.13695 -8.99532 1.7517 3.11488
46 16 1 1.22976 -1.28884 3.15574 -5.98308 4.72736 -0.756332
636 212 2 0.103508 -5.9877 -1.91325 20.4128 -0.969583 2.41011
634 212 1 1.04567 -5.5262 -1.8945 -22.3635 -2.42316 6.07726
398 133 2 4.11089 -2.64316 -0.0537476 21.8392 -16.9997 1.10458
286 96 1 4.81119 -3.66513 -3.10065 19.7849 -4.12046 13.8875
397 133 1 4.89387 -3.35617 -0.0955597 -12.5892 10.1738 -4.32031
399 133 2 5.01743 -3.73423 -1.04449 -1.20973 11.6922 3.81852
513 171 2 5.96868 -4.49747 0.992389 -4.54712 10.3906 -2.8242
259 87 1 0.163364 -0.404372 -0.184696 27.9129 2.37848 5.39499
511 171 1 6.04491 -5.40795 1.44092 4.30322 -4.92902 2.19302
375 125 2 -1.66987 1.38473 -3.17681 -13.1802 3.81213 1.25382
373 125 1 -0.893677 2.04531 -3.04405 28.6239 -4.63956 -16.7433
298 100 1 -1.09689 7.19085 -1.75552 5.87416 5.30735 -33.6172
136 46 1 -5.62308 1.20872 2.05762 -16.5367 -8.91138 9.01578
138 46 2 -6.28231 0.669801 2.64252 12.9104 12.3082 -8.20461
601 201 1 -3.34397 1.03624 -2.94275 -7.65556 -1.79786 -11.8693
299 100 2 -0.984591 6.90233 -2.75879 8.08863 -1.55534 18.4747
300 100 2 -2.09532 7.18829 -1.69365 -13.883 -0.363747 13.2822
603 201 2 -3.23603 0.816023 -1.96286 2.04964 -8.98309 13.5071
563 188 2 -2.59231 0.517278 0.702139 -10.636 -9.44541 18.3559
562 188 1 -2.3526 0.626614 -0.271919 5.23511 8.37946 -20.9634
296 99 2 -3.91839 4.75058 -2.799 -3.61931 -19.7517 -18.8407
297 99 2 -3.71271 6.26055 -2.37419 -7.54335 -17.4417 8.98834
295 99 1 -3.89342 5.32375 -1.9714 17.2871 34.0396 4.79919
646 216 1 -7.04139 2.56402 -2.04896 -10.6688 -22.5622 2.17259
20 7 2 -2.92299 4.11991 -0.996604 3.09597 6.38519 7.12826
647 216 2 -6.54705 2.40278 -1.17403 2.67606 8.97728 3.99866
278 93 2 -5.76611 6.93205 0.897807 1.19468 13.0666 5.01034
277 93 1 -5.6755 6.10566 0.318764 -0.0872108 -15.2899 -16.7646
279 93 2 -5.66089 6.31049 -0.693804 0.428004 -7.41837 10.0114
168 56 2 -5.70054 3.0725 1.46735 -9.38138 -3.77569 -5.4948
167 56 2 -6.10993 4.45139 0.592833 -3.1982 3.16436 2.60284
166 56 1 -6.48891 3.61904 1.08317 5.83098 -0.102627 4.05837
564 188 2 -2.54094 1.60553 -0.515324 3.10781 9.08583 3.37007
21 7 2 -1.68129 3.72377 0.18249 -5.58104 11.5893 -6.32481
529 177 1 -7.08737 5.30632 -2.22211 25.1272 -20.5027 -10.0961
530 177 2 -7.04476 4.24967 -2.20473 -11.0487 26.8392 5.98147
374 125 2 -1.03091 2.55138 -2.18424 -7.03041 6.79014 9.89455
19 7 1 -2.36872 3.40082 -0.500176 2.15502 -18.0898 -4.5016
137 46 2 -4.72852 0.69114 2.02609 4.70987 -1.50609 2.61101
579 193 2 -3.41753 6.99696 2.50094 21.6491 -12.2932 7.53282
450 150 2 -7.16862 4.14257 2.59083 0.997282 3.9905 -9.20351
502 168 1 6.11613 0.134524 -2.44254 -6.27777 13.4861 -8.80287
503 168 2 5.23534 0.548167 -2.80604 9.14231 -11.5512 12.8952
86 29 2 3.38753 4.65275 -1.86081 1.59613 1.88105 -1.73588
87 29 2 4.16383 3.25643 -2.30044 -1.06519 13.2509 4.64579
85 29 1 4.30086 4.27721 -2.12077 2.05384 -11.8686 -1.69047
506 169 2 5.31874 6.16905 2.67031 11.1891 -5.20095 12.375
497 166 2 6.15779 0.382545 0.790291 -6.89102 -14.998 -2.21325
505 169 1 4.74502 6.14517 1.85291 -23.5218 -20.6907 -21.5418
648 216 2 6.91484 1.68436 -2.1882 6.08803 14.2433 0.0409858
531 177 2 6.54908 5.75527 -2.02364 -16.6922 -7.35446 6.55999
310 104 1 0.63286 4.4288 0.709906 4.48807 11.7655 -8.85765
312 104 2 0.0921145 4.87009 1.48084 14.9876 4.30234 -16.4105
311 104 2 1.16993 5.1126 0.0948761 -17.9349 -13.3537 23.6391
507 169 2 4.34074 5.18405 1.70011 12.5673 24.002 6.59202
303 101 2 1.11928 1.08531 -0.0876765 9.42011 18.9633 -4.39071
301 101 1 1.64818 1.98942 -0.188191 -23.8794 -22.9743 5.6837
604 202 1 3.62104 3.55144 1.54372 -22.7728 8.77815 -30.6794
606 202 2 2.82005 3.67187 0.860899 26.1751 -7.47643 21.2295
302 101 2 1.01264 2.75663 0.0851635 6.55007 2.31566 0.0869439
605 202 2 4.31401 2.92329 1.11708 -1.49585 1.17745 2.12168
588 196 2 3.45211 6.16361 -0.357148 0.618025 2.26614 1.98907
231 77 2 2.50948 1.78835 -1.55454 21.8561 5.82013 9.17999
229 77 1 3.22937 1.79363 -2.31063 -32.1568 -6.89904 -10.9723
230 77 2 2.56125 1.60593 -3.08269 20.1756 -2.83526 -4.69644
587 196 2 2.41645 6.317 -1.66365 -5.13449 1.47722 -20.2002
586 196 1 2.50327 6.02268 -0.69767 -0.94175 -9.51736 25.4233
330 110 2 2.88066 3.66277 2.86259 -18.582 -7.04526 41.1494
590 197 2 6.69804 2.1693 1.75092 -20.2715 -8.31972 11.2444
589 197 1 5.85726 1.56113 1.92112 9.05766 8.42381 -6.19998
591 197 2 5.33373 1.68372 2.81024 17.4604 0.809364 -11.4432
405 135 2 -3.28041 -2.65532 3.65344 -0.0734108 10.2313 45.1455
211 71 1 -0.29933 -2.50558 5.19292 -3.36991 19.8214 6.34263
4 2 1 -0.812529 -6.33152 3.30004 4.34027 -10.5072 8.07435
404 135 2 -2.31358 -2.61539 5.01792 24.4821 -1.03428 7.99377
403 135 1 -3.245 -2.42885 4.70778 -26.1297 -15.5865 -56.0575
400 134 1 -6.03795 -4.93814 7.06601 20.4318 1.56233 9.47739
401 134 2 -6.8291 -4.78866 7.67065 -12.8693 -0.779541 1.02643
73 25 1 -0.339265 -0.215095 8.41364 -8.21991 17.0437 -6.8701
402 134 2 -5.21458 -4.66717 7.63095 -2.96342 -2.37449 -8.57075
245 82 2 -4.79159 -1.883 5.41514 -13.9885 -7.133 4.66114
254 85 2 -5.66522 -5.51493 4.38738 -0.0482028 -11.8763 3.08337
253 85 1 -5.62712 -6.50237 4.68675 -3.81938 23.0027 17.1661
244 82 1 -5.64477 -1.49453 5.87337 26.7097 6.46952 -11.6524
255 85 2 -5.6758 -6.41824 5.71923 -3.88363 -0.316524 -7.00061
246 82 2 -5.2927 -0.548036 6.04107 -11.0146 0.74295 5.0961
527 176 2 -3.01347 -7.17091 7.26754 5.29706 3.36905 5.57995
494 165 2 -1.12523 -1.70217 7.97097 5.27425 18.1758 17.454
495 165 2 -0.992796 -2.63381 6.7152 -4.38088 -8.76202 -8.28511
493 165 1 -1.52874 -2.5451 7.58636 -4.44155 -7.45227 -6.16377
486 162 2 -1.75266 -5.71846 5.07381 4.24887 -1.96842 -2.04115
484 162 1 -2.2109 -5.25818 5.85989 -1.88574 -1.85882 -6.88841
485 162 2 -2.89672 -4.61693 5.47624 -3.12504 4.58171 3.20187
339 113 2 -3.36416 -6.17008 9.26959 5.44848 -22.4698 9.72567
322 108 1 -3.77616 -3.92349 8.75696 -7.05787 -2.08784 -0.500294
323 108 2 -3.18168 -3.48573 8.04817 8.65311 0.0475111 -2.25338
324 108 2 -3.58903 -3.43549 9.63141 -0.071255 -2.91614 1.5932
94 32 1 -0.8295 -6.6511 7.98124 3.15264 -21.5359 9.06923
95 32 2 -1.20092 -5.74846 7.77772 -6.93916 22.4288 -8.70992
42 14 2 -1.70133 -0.336855 5.3078 3.32724 5.92357 -15.1357
390 130 2 -6.26496 -2.29016 8.2462 0.020204 7.18318 3.50211
388 130 1 -6.74479 -2.09863 9.1332 3.24203 -3.55393 -5.18901
98 33 2 0.410331 -5.26285 3.95588 11.2543 -8.29677 -7.63564
212 71 2 0.264749 -3.35522 4.99747 0.76945 10.2744 -12.8869
97 33 1 1.11189 -4.50231 3.96487 -14.0233 17.766 9.40848
48 16 2 1.15779 -0.319078 3.53008 1.89665 1.51706 -6.96368
99 33 2 2.10267 -4.71607 3.8797 2.28502 -12.0995 -3.51209
213 71 2 0.0247835 -1.66733 4.6542 1.17566 -32.9136 3.02728
582 194 2 2.71844 -1.66638 3.31993 -9.35879 -1.41103 5.55016
594 198 2 7.13716 -1.96712 5.13361 20.8657 3.11164 10.699
592 198 1 6.37461 -2.51209 4.7495 -16.6957 -6.00509 -5.49112
160 54 1 4.01208 -4.42664 3.43041 21.9312 18.5895 11.2974
162 54 2 4.03006 -3.36393 3.49115 -4.27049 -28.7897 -9.22879
96 32 2 0.197262 -6.68605 7.89056 0.143088 -1.55021 -0.896357
272 91 2 5.03654 -3.99118 7.57891 -11.0583 13.5707 -10.8385
580 194 1 3.75077 -1.71812 3.38561 24.4263 3.67121 2.67312
77 26 2 3.93058 -1.25432 7.01858 -9.0472 4.55666 13.5649
76 26 1 3.48395 -0.691861 7.76956 9.91225 -7.04523 -20.1111
294 98 2 3.77272 -5.87719 4.61937 1.30016 -5.54081 7.53966
225 75 2 3.7454 -3.64463 5.53571 -14.0579 -6.51699 6.64518
224 75 2 5.17484 -3.08348 5.72956 4.00877 5.21625 13.2918
223 75 1 4.32493 -3.30091 6.29251 11.0035 6.06032 -21.3123
581 194 2 4.07341 -0.789984 3.70922 -1.19433 1.16925 3.53454
273 91 2 5.61084 -5.38355 8.10908 2.7971 -14.2639 4.05804
25 9 1 1.74815 -7.16388 7.41503 -14.2082 -0.966006 -1.01594
161 54 2 5.00149 -4.75545 3.37153 -21.0158 8.53417 -6.04792
289 97 1 6.54709 -7.18827 8.67429 3.07501 8.37104 -2.53327
271 91 1 5.53738 -4.40902 8.36548 12.7681 4.01417 15.0211
290 97 2 6.71446 -6.67053 9.56133 -8.1393 -2.16017 1.78026
78 26 2 4.23996 -0.374566 8.38698 0.223705 -1.63652 8.28666
593 198 2 5.88825 -1.93591 4.07229 -1.68536 1.6966 -3.81661
292 98 1 3.52958 -6.34126 5.50765 5.29037 -4.85546 -1.22799
293 98 2 4.18793 -7.07264 5.81962 -7.6886 13.1261 -8.81576
26 9 2 2.18618 -6.57564 6.69744 12.3786 -0.121736 -0.948924
389 130 2 6.97371 -2.73578 9.18202 -4.18023 -1.98801 0.0293267
633 211 2 4.83975 -7.12761 8.89381 30.4918 0.29575 -14.1907
631 211 1 3.85059 -7.08516 9.02958 -21.3325 -8.11128 33.5113
165 55 2 1.29822 -2.67219 8.11189 -11.4479 -10.0188 -4.71657
163 55 1 1.79317 -2.50165 8.97069 14.9877 20.0354 -0.946754
164 55 2 2.36362 -1.67246 8.68359 -1.35734 -11.582 9.52147
125 42 2 -4.68154 6.68158 4.58326 4.31113 -5.47447 -12.8801
528 176 2 -3.22779 6.72765 5.74798 0.0543756 -3.78336 -6.19713
75 25 2 -0.863798 0.577916 8.87071 13.4893 -15.9832 -9.6009
291 97 2 -7.01173 6.91317 8.47013 -3.73808 0.0551748 -4.37429
5 2 2 -0.349616 7.24807 3.31313 -1.39259 2.76783 -0.670926
124 42 1 -3.98346 6.05478 4.12085 2.30248 12.8374 -2.07911
102 34 2 -4.90612 6.02821 8.89637 4.95003 2.60099 1.9593
101 34 2 -5.48814 5.77998 7.36024 -2.54436 2.92216 13.5381
126 42 2 -4.35164 5.11827 4.07015 -4.98404 -10.1357 1.50559
468 156 2 -3.01154 1.17642 5.63156 -7.52017 -9.23307 -25.8831
466 156 1 -3.98214 1.20707 5.94418 9.35502 -4.88246 -0.399428
467 156 2 -3.77018 1.55667 6.85652 -17.3978 11.7039 24.0276
238 80 1 -3.38772 3.83395 7.08786 -4.46848 -16.6039 -3.84421
240 80 2 -2.48192 3.43981 7.25573 18.3229 -2.65801 8.70771
239 80 2 -3.21371 4.80996 6.86511 -0.233356 24.0784 1.9147
232 78 1 -5.8106 4.12738 6.26504 -27.3594 28.6911 1.72097
233 78 2 -6.21718 3.25961 5.91905 3.58391 -11.6614 -7.03683
234 78 2 -4.82953 4.02207 6.54263 13.4092 -12.3324 6.47391
91 31 1 -6.55077 1.80792 5.16045 21.9708 -3.91278 2.89304
92 31 2 -7.09043 1.35757 5.91941 1.55838 -2.66821 2.25892
93 31 2 -5.53644 1.59029 5.37691 -21.5723 3.38784 -9.68312
190 64 1 -4.84737 1.36948 9.66378 6.71895 -4.48493 -5.79509
192 64 2 -3.87226 1.59448 9.46883 -0.209677 0.606466 0.891763
435 145 2 -1.56008 2.75232 9.36487 -7.283 -25.5279 16.7275
526 176 1 -3.25399 6.50371 6.74177 3.13177 -3.93362 -2.20162
40 14 1 -1.84583 0.199781 4.43677 15.3509 7.30824 0.172621
442 148 1 -0.676086 4.12915 8.09102 -16.7389 3.12 -1.17771
443 148 2 -0.512934 4.94132 7.46967 2.17666 -9.86966 2.04189
110 37 2 -0.791156 6.52874 6.4069 17.2078 -6.86489 -3.41347
41 14 2 -1.03834 0.730818 4.06365 -6.54276 -10.2132 13.6313
100 34 1 -5.69074 6.22375 8.27641 0.685158 -9.78224 -14.973
328 110 1 2.46819 3.54548 3.86069 43.72 2.58402 -25.2002