ITEM: TIMESTEP
28500
ITEM: NUMBER OF ATOMS
648
ITEM: BOX BOUNDS pp pp pp
-7.2042058625899665e+00 7.2042058625899665e+00
-7.2042058625899665e+00 7.2042058625899665e+00
-1.6009346361311394e+01 1.6009346361311394e+01
ITEM: ATOMS id mol type x y z fx fy fz
534 178 2 -5.12266 -2.89119 -11.1326 2.37268 -9.44566 -6.21636
533 178 2 -4.32068 -1.53881 -10.8468 2.31989 14.9938 8.7256
532 178 1 -4.32351 -2.33437 -11.4558 -6.0444 -8.52915 -2.93592
520 174 1 -1.91145 -2.83707 -15.5027 6.93634 4.1882 15.478
128 43 2 -6.69477 -2.66321 -14.7909 1.44187 0.631133 3.56108
522 174 2 -2.85756 -3.19301 -15.303 0.785579 -2.82564 -4.29608
322 108 1 -5.51959 -1.44819 -13.7186 -10.3631 6.24353 -19.1086
412 138 1 -1.74645 -3.39864 -10.9451 17.3927 17.5501 -5.17783
432 144 2 -1.21999 -6.87605 -10.9348 -4.54019 -2.50043 -5.68403
431 144 2 -2.68104 -6.83537 -11.6974 -7.73058 7.57221 -12.6697
414 138 2 -1.00407 -2.67571 -10.6956 -30.6505 -16.3788 -10.4611
477 159 2 -4.42 -4.86772 -12.7501 -4.72489 6.92103 -8.15089
318 106 2 -1.92003 -0.195737 -11.0946 5.72297 -24.1625 15.756
459 153 2 -0.435718 -3.79674 -15.3091 -16.7646 13.7696 1.67975
324 108 2 -6.22509 -0.701918 -13.6299 3.0005 -7.0775 9.94986
323 108 2 -5.07277 -1.67837 -12.8248 2.73901 -2.93439 4.16315
135 45 2 -6.97088 -1.00983 -10.0629 6.19239 19.8108 -7.20284
58 20 1 -6.5968 -4.24404 -11.3467 9.77608 -9.2275 4.45242
133 45 1 -6.40112 -0.275887 -10.5732 -11.6539 -25.6336 -12.6151
265 89 1 -1.34836 -0.321441 -14.2995 -7.04094 7.13829 3.47735
267 89 2 -1.37041 -1.33858 -14.4321 -1.9959 -4.30191 -6.97668
476 159 2 -4.19444 -5.23726 -14.4241 -5.93867 14.3801 -9.00164
475 159 1 -4.15589 -5.54401 -13.4605 10.0778 -19.0797 18.0504
145 49 1 -0.202487 -1.37665 -10.0005 12.8272 2.27487 -4.987
569 190 2 -5.70788 -5.80028 -10.1132 4.64553 -5.31235 33.3134
413 138 2 -2.5126 -3.05356 -11.5675 15.263 -1.78294 16.8434
60 20 2 -7.11679 -5.11087 -11.5073 0.744276 -6.77184 -5.20923
127 43 1 6.86424 -3.06595 -15.2043 6.91896 2.23224 0.0853523
59 20 2 7.12164 -3.52267 -11.251 -10.7039 12.6825 -0.100637
9 3 2 1.30041 -4.43184 -13.6488 5.58838 -9.85736 -4.06762
378 126 2 1.43733 -2.98362 -9.72554 -9.16942 7.20019 -3.25475
377 126 2 2.89057 -3.71906 -9.96588 -6.32289 -6.18199 1.77124
45 15 2 6.57139 -0.501555 -12.3267 1.04447 13.2984 -13.2876
81 27 2 3.68396 -0.557363 -12.0338 18.7671 -25.1576 1.23615
79 27 1 4.20289 -1.46154 -11.8702 -25.4926 41.0898 9.20146
146 49 2 0.436696 -0.591926 -10.2566 -6.75927 -11.8141 15.4081
80 27 2 4.36789 -1.55069 -10.8642 3.94569 -2.55856 -3.75479
474 158 2 4.632 -5.23667 -10.7253 2.20456 -1.81632 -3.44132
176 59 2 5.81291 -3.1823 -13.8681 -7.29362 0.362318 -0.877099
472 158 1 4.57359 -4.22379 -10.765 -10.63 -7.61195 36.4555
473 158 2 4.82369 -3.9158 -11.7053 2.57613 0.460125 -20.4923
177 59 2 4.58411 -2.66344 -12.709 15.8252 -2.44971 -16.4029
175 59 1 5.09241 -3.46645 -13.1799 -3.71688 -1.17209 2.73232
334 112 1 4.18345 -5.93374 -14.6574 10.0613 -48.9805 18.9122
620 207 2 1.31757 -5.81212 -11.923 -11.8415 -15.6246 21.3744
139 47 1 7.1748 -6.35041 -15.2068 -1.25568 -10.2425 8.77452
8 3 2 1.79882 -6.03828 -13.8002 0.52724 12.3352 5.05349
7 3 1 1.86851 -5.17815 -13.2191 -7.19863 -6.12668 -2.04832
616 206 1 6.56205 -6.93811 -11.6702 3.93811 -1.23474 29.5955
455 152 2 1.48832 -0.147148 -15.5448 5.35846 -1.25665 -8.51813
621 207 2 0.993059 -5.60196 -10.3274 -2.30146 -4.56422 -1.24842
619 207 1 0.910307 -6.30847 -11.0652 8.46977 23.0973 -17.7408
141 47 2 6.76334 -5.43557 -15.0288 -0.402607 2.37123 0.174949
336 112 2 4.22859 -5.69371 -15.6541 -3.24187 23.4692 -2.86067
335 112 2 3.85828 -5.20545 -14.0278 -2.02978 14.6242 -2.47668
140 47 2 7.16206 -6.8839 -14.3258 2.52495 7.77427 -12.355
457 153 1 0.368816 -4.40489 -15.4276 -1.71004 -20.1182 -2.90271
458 153 2 0.0375504 -5.21631 -15.9683 6.23778 7.45683 5.87585
356 119 2 1.91491 -6.90625 -15.9961 -2.09717 4.16779 -15.3538
430 144 1 -2.12914 7.06328 -11.0273 14.2295 2.6498 14.182
317 106 2 -1.5934 0.18584 -12.6894 -3.82383 2.4505 6.10908
316 106 1 -1.95077 0.52617 -11.774 -1.65263 21.1499 -16.9215
134 45 2 -5.81407 0.227747 -9.93841 7.76768 13.2969 19.8582
266 89 2 -2.15393 0.0477536 -14.8365 7.86032 -4.34342 -4.31066
385 129 1 -6.52716 3.12272 -13.3947 8.69745 17.9527 -8.56227
386 129 2 -6.09188 2.24876 -13.6289 7.74865 -16.6733 1.30588
387 129 2 -6.54036 3.60807 -14.3004 -4.94652 5.9269 0.134878
382 128 1 -4.09086 5.29848 -10.1869 -3.75292 19.5131 10.6039
384 128 2 -3.52461 6.1064 -10.5349 -2.24702 -20.2293 5.00153
169 57 1 -0.455504 3.20141 -13.9159 5.83907 0.143245 28.8995
163 55 1 -3.4724 2.18512 -13.9963 5.6597 25.7684 4.75343
171 57 2 -0.219339 3.45254 -12.9214 -6.89307 -16.0211 -27.5117
165 55 2 -2.99697 2.80936 -13.3116 -7.70483 -14.7952 -16.0615
164 55 2 -3.70609 1.31878 -13.5444 -0.192632 -11.3728 9.22733
228 76 2 -3.69568 3.06729 -15.7322 2.26274 -8.38896 9.02802
465 155 2 -2.05316 1.67033 -10.1906 2.60722 6.44665 20.2156
480 160 2 -5.73181 4.80496 -10.8798 19.8036 6.61421 9.61811
170 57 2 -0.323242 2.19781 -14.1387 0.514432 16.6599 9.05673
478 160 1 -6.68651 4.46826 -10.9267 -19.1682 -15.8184 -36.0992
35 12 2 -7.143 3.05497 -9.99062 -3.57646 1.36369 1.58475
624 208 2 -0.548626 3.09373 -9.88012 -4.98024 -6.24219 3.34198
479 160 2 -6.77207 4.03112 -11.8851 5.63737 9.55369 24.8723
345 115 2 -3.67842 1.10594 -15.8983 16.6425 -13.3268 -12.6131
436 146 1 -6.58469 0.897118 -15.7916 7.59299 -2.59147 -47.1393
438 146 2 -6.91661 0.397631 -15.0088 -13.3854 -13.687 29.83
43 15 1 6.59317 0.0921209 -13.1805 7.98197 -15.1005 5.75878
456 152 2 0.183566 0.242906 -14.613 15.3656 -1.61969 0.657168
454 152 1 1.20773 0.412457 -14.7491 -16.6206 1.31182 10.9904
44 15 2 6.08243 0.949295 -12.989 -4.00069 7.28224 -0.149833
241 81 1 3.19885 1.25711 -12.3179 -23.4221 -30.4183 -4.15707
243 81 2 3.97982 1.91776 -12.4073 0.362695 6.61482 -16.4401
242 81 2 2.6679 0.976229 -13.1812 19.7536 19.4801 12.0331
120 40 2 0.000747848 4.26248 -15.1292 1.2198 -8.62515 4.09955
617 206 2 6.58645 6.87452 -10.8322 6.56613 12.8905 -7.56523
626 209 2 5.10442 3.84657 -12.2995 1.5035 -3.43266 9.06176
627 209 2 6.39214 3.14759 -13.103 10.2743 -1.47389 -4.43714
618 206 2 6.14487 6.8766 -12.3672 -9.60142 -7.44023 -22.4392
625 209 1 5.39916 3.04006 -12.8676 -30.0158 -15.1955 -4.7778
309 103 2 1.1735 4.96097 -11.3125 4.75887 9.62313 -14.4663
307 103 1 1.63841 5.67037 -11.9182 -3.24269 -34.9791 10.1461
638 213 2 5.91842 4.70553 -10.4564 -3.40623 -21.3942 -8.40112
637 213 1 4.94468 4.50407 -10.7543 13.1644 36.1444 16.2682
471 157 2 4.44586 5.45338 -13.9129 -11.3763 -15.3345 1.07783
470 157 2 4.89909 6.99817 -14.1265 5.10341 -7.96163 4.12194
639 213 2 4.51871 5.41861 -10.5202 -12.8765 -9.61099 0.0993628
262 88 1 1.2794 6.57567 -14.4075 5.64875 -4.38707 -9.20418
469 157 1 5.23424 6.059 -13.799 6.35006 29.719 -6.59748
308 103 2 1.2855 6.60336 -11.694 -6.38457 14.8989 9.19675
90 30 2 2.74038 5.79868 -10.4677 -5.94857 1.29884 -8.93434
88 30 1 3.27362 6.36668 -9.81058 12.3408 8.42986 7.25169
264 88 2 1.58201 6.14741 -13.5063 -6.30913 1.50324 -5.53401
283 95 1 1.97881 0.574641 -9.98505 13.7822 28.9294 24.26
284 95 2 2.27032 0.748653 -10.9423 5.98287 -1.19413 -18.6637
263 88 2 0.971835 5.82915 -15.0571 2.78121 6.29831 6.81687
15 5 2 3.68624 3.62618 -9.93829 2.07258 -3.32239 0.825741
623 208 2 0.743448 2.25975 -10.5816 3.93935 -7.74095 6.38137
622 208 1 0.142451 3.07037 -10.6268 4.51031 19.9672 -17.8698
144 48 2 6.41344 5.27992 -15.3873 9.95942 -10.5735 -0.426615
142 48 1 6.92929 4.5275 -15.8791 -21.2197 8.48308 -0.446747
246 82 2 5.46327 0.492437 -15.7032 3.69088 -1.92467 3.08606
83 28 2 -2.53494 -3.92261 -9.54231 0.371258 16.0265 -7.6786
82 28 1 -3.27281 -3.95273 -8.82458 -12.8454 -11.608 28.7116
84 28 2 -3.45518 -3.08132 -8.26119 1.36386 -8.87519 -22.6757
147 49 2 -0.177473 -1.61562 -8.99069 -5.46303 10.6319 -4.91555
610 204 1 -4.1439 -1.70928 -7.58383 7.71866 0.867435 2.26667
612 204 2 -4.29519 -0.786452 -7.99205 -6.05253 6.2251 -1.80853
611 204 2 -3.58208 -1.61507 -6.73108 0.20593 -3.17147 1.10264
123 41 2 -2.17316 -1.23512 -4.38027 5.22711 -2.4363 -0.17961
152 51 2 -3.94168 -4.00475 -5.15423 2.82114 -3.40437 14.1414
153 51 2 -5.49286 -3.82792 -4.94963 -6.43586 6.44518 6.71999
151 51 1 -4.62055 -3.88015 -4.38103 12.0003 5.85151 -31.2022
121 41 1 -2.78401 -1.55117 -5.14 -13.2191 1.30776 16.2353
122 41 2 -3.43281 -2.22561 -4.69993 5.90717 2.54094 -5.25227
350 117 2 -2.89003 -6.56077 -6.09601 -2.19443 2.52814 7.60198
635 212 2 -6.12446 -5.95033 -6.9583 3.78799 0.130848 7.1431
634 212 1 -6.75322 -6.59672 -6.47979 -7.46392 8.35449 -20.8175
349 117 1 -3.54146 -7.16344 -5.58931 19.0944 16.2338 12.4618
10 4 1 -2.102 -4.36737 -6.27628 14.3914 -12.8661 10.4103
11 4 2 -2.19618 -4.15993 -7.2827 2.21032 -5.05378 5.3448
12 4 2 -1.11655 -4.6047 -5.9721 -24.0859 16.2706 -13.5597
261 87 2 -4.36684 -5.11559 -3.53201 7.50725 -15.1472 0.325543
258 86 2 -1.12168 -2.46526 -6.49975 1.12618 -1.63162 -0.458308
256 86 1 -0.909497 -1.80245 -7.24927 2.78452 13.6163 -1.27378
210 70 2 -6.85252 -2.35835 -5.80411 -4.41071 -16.0412 -6.85557
208 70 1 -6.69105 -3.38827 -5.87116 -6.55473 8.7673 5.24507
281 94 2 -6.60499 -5.95554 -3.93928 -14.3913 -2.3877 3.59267
570 190 2 -4.64785 -5.26385 -8.96507 -10.3636 -8.70515 -0.0275315
568 190 1 -5.41723 -5.95583 -9.11309 9.78336 23.1396 -26.8195
257 86 2 -1.14395 -0.85299 -6.91471 6.88479 -13.9397 -8.5158
180 60 2 -5.19089 -0.275294 -3.43464 -4.294 -18.132 8.60381
260 87 2 -3.94338 -6.8005 -3.69404 -1.85252 13.9327 -5.51534
33 11 2 6.44065 -2.83836 -9.12982 -0.568293 -25.1173 10.1905
376 126 1 1.96217 -3.81928 -9.50765 19.1136 18.8425 -22.3912
32 11 2 5.78253 -1.42049 -8.67401 -5.79812 9.10841 -0.832895
31 11 1 6.36605 -1.87801 -9.38219 6.20723 9.19633 -11.1726
636 212 2 6.87023 -6.6267 -7.15316 1.6211 -6.46869 11.9426
85 29 1 6.49987 -0.963702 -5.46604 13.6884 4.10122 19.9566
87 29 2 6.81109 -0.282481 -4.76303 -4.68895 -1.26824 -5.43042
379 127 1 5.15037 -6.4405 -8.05565 8.39333 13.7261 3.59337
380 127 2 4.90407 -6.64533 -7.0859 -0.419299 -10.7747 6.58131
507 169 2 6.54359 -3.08865 -3.88063 2.87059 -14.7152 0.56086
198 66 2 5.30553 -4.68287 -7.71958 12.7285 0.858108 1.40034
196 66 1 5.43696 -3.73781 -7.3225 -11.6361 -23.9301 -11.0267
197 66 2 4.48923 -3.36891 -7.42023 0.196712 16.7818 9.86015
490 164 1 4.53704 -0.262157 -8.26288 -14.6338 -6.37031 13.4202
555 185 2 2.13754 -2.57707 -7.07548 8.80354 1.61474 1.45425
553 185 1 3.05415 -2.31975 -6.68385 -15.178 -2.39881 -8.34309
554 185 2 2.89143 -2.10722 -5.70346 3.52269 3.15681 5.18834
209 70 2 6.90938 -3.78762 -6.38327 2.14091 8.92896 -1.93403
491 164 2 3.90258 -0.732978 -7.59242 8.98142 2.73437 -6.19779
556 186 1 2.03725 -5.8173 -8.05528 21.8184 -46.3679 43.531
558 186 2 2.05656 -5.023 -8.70798 -16.4458 13.107 -12.2563
237 79 2 3.58617 -6.17009 -5.24648 0.310232 -6.33876 2.10379
235 79 1 2.87086 -5.44484 -5.31166 11.3461 4.62248 -2.55957
236 79 2 2.83761 -5.17252 -6.29734 -3.35187 -4.93094 -1.55248
306 102 2 1.15503 -4.70268 -5.93214 13.6663 -12.5581 2.21952
305 102 2 0.74342 -3.85289 -4.52986 0.457443 -5.69849 -15.6561
255 85 2 4.11564 -4.34335 -3.48336 -0.829982 -2.47771 16.6698
19 7 1 3.44441 -1.24628 -3.63161 -35.4552 12.5809 -2.73651
304 102 1 0.507444 -4.04655 -5.52826 -18.1353 17.6026 19.7892
86 29 2 5.84626 -0.505856 -6.08555 -9.49647 1.35806 -10.5215
381 127 2 4.37677 -6.70006 -8.66073 -4.67006 -7.67011 -4.19531
602 201 2 1.29324 -0.461787 -4.40825 16.2839 -14.4487 5.03196
280 94 1 6.97519 -5.90286 -3.32178 21.7302 9.02627 15.2307
116 39 2 5.6909 -6.60118 -4.82994 8.8253 -4.58172 9.8329
557 186 2 1.24114 -6.49809 -8.06883 -2.37759 15.4368 -10.3392
21 7 2 4.1778 -1.88421 -3.88244 18.2066 -0.184668 8.30251
383 128 2 -4.42536 5.54022 -9.21111 7.657 -3.36942 -24.4082
648 216 2 -2.76777 0.0647226 -5.69827 5.90065 2.17141 3.39224
351 117 2 -4.03456 6.70843 -6.27104 -17.2759 -15.4576 -16.0014
539 180 2 -6.40643 3.10926 -6.23993 -4.59409 -1.13659 -9.53171
647 216 2 -4.0346 1.01239 -5.81525 14.1399 13.0654 -3.77186
646 216 1 -3.00543 1.06076 -5.81972 -21.9183 -11.1107 6.25405
361 121 1 -2.42373 3.72948 -4.58704 3.58544 -12.5356 8.77086
362 121 2 -2.36374 2.70792 -4.54981 -2.50406 2.68538 2.95655
363 121 2 -2.43471 3.94681 -5.57655 -6.49817 7.36274 -16.7396
463 155 1 -2.12597 2.19152 -9.28441 -6.91529 -3.01532 -2.46956
464 155 2 -1.72583 1.73125 -8.43825 4.84219 -3.55969 -18.168
538 180 1 -6.58808 2.128 -6.53152 14.0472 3.63666 34.3642
525 175 2 -5.21144 1.57928 -7.53875 -11.0579 -7.4317 -8.03845
523 175 1 -4.83094 1.04275 -8.33435 13.0083 3.40463 2.1366
524 175 2 -4.2107 1.6978 -8.8178 1.58538 -3.51901 -3.18759
98 33 2 -1.46242 1.39433 -6.58064 -1.84861 -3.81496 12.2663
97 33 1 -0.669096 1.13145 -7.17245 -2.52483 4.10321 -22.6966
645 215 2 -2.36743 3.7558 -8.23117 -2.95973 4.35845 7.76537
644 215 2 -3.08287 5.13288 -7.53508 7.6967 -17.6946 -0.875906
365 122 2 -5.18279 7.08629 -8.01089 0.668005 -30.678 -0.68122
643 215 1 -2.45243 4.32229 -7.36457 -5.01912 11.4677 -3.98624
299 100 2 -6.7745 5.82446 -5.79327 8.49974 -17.4867 3.21584
300 100 2 -6.18271 4.52999 -4.76143 0.74123 21.724 -50.0525
366 122 2 -5.42924 5.48973 -7.29568 -19.1745 -1.14714 11.1906
364 122 1 -4.81892 6.10801 -7.82103 21.9632 23.9526 -5.47618
39 13 2 -4.16607 3.89298 -3.82129 -5.593 5.01346 -3.15719
298 100 1 -6.36948 4.86065 -5.77975 -5.52827 -1.98407 40.9488
249 83 2 -0.639881 6.81447 -9.12779 2.91627 -0.247466 9.04865
247 83 1 -0.0758811 7.01145 -8.29103 -17.7035 -3.96124 8.39044
248 83 2 -0.595838 6.79157 -7.41231 13.6582 1.18075 -14.7733
561 187 2 -0.892312 4.9666 -6.01552 5.24473 16.6195 -4.01135
559 187 1 -0.379667 5.82104 -5.73091 -12.7957 -26.0375 -4.69826
560 187 2 -0.460929 5.80616 -4.72113 2.66589 8.74575 3.18699
369 123 2 -6.65843 2.15506 -3.67575 1.30186 5.11696 8.29627
37 13 1 -5.17754 3.86539 -3.60704 4.02625 -8.67601 -0.186467
285 95 2 2.42939 1.42233 -9.52635 -20.0359 -20.8085 -9.77602
89 30 2 2.61703 6.92872 -9.27539 -5.0778 2.13843 3.33687
368 123 2 7.17216 1.52229 -5.01672 1.6634 3.60873 -3.32382
540 180 2 7.16304 2.10496 -7.29695 -8.03428 6.23671 -25.2506
99 33 2 0.124666 0.703672 -6.70483 0.941419 -0.371214 12.7595
34 12 1 6.87046 2.505 -9.21418 24.3006 20.7137 24.4752
36 12 2 6.21297 1.83092 -9.48976 -22.8806 -23.1097 -17.5709
492 164 2 3.95681 0.301731 -8.88115 0.942495 1.07385 0.259774
603 201 2 0.505699 0.962483 -4.22178 -7.23572 -12.7174 2.06147
601 201 1 0.458722 0.0218772 -4.66445 -10.4772 20.1914 -10.2155
117 39 2 4.58718 6.49148 -4.65638 2.65964 -0.428182 4.9122
115 39 1 5.07374 7.14162 -5.29472 -16.1771 8.43106 -12.9851
229 77 1 4.02142 1.33346 -5.24224 32.9683 17.727 -11.8823
230 77 2 4.92601 1.84583 -5.33329 -27.9384 -14.2793 1.6007
68 23 2 0.785008 5.0896 -7.39078 3.51104 2.74434 -2.11093
67 23 1 1.51381 4.45443 -7.72722 -18.0932 10.7822 -17.8896
69 23 2 2.01004 4.07815 -6.95948 14.7274 -9.47514 22.0052
231 77 2 3.6313 1.45495 -4.32826 -3.47324 -1.56404 9.40016
13 5 1 2.98757 3.04817 -9.44449 1.16731 -6.88358 -1.98631
14 5 2 2.33821 3.66181 -8.9196 1.58522 0.307745 2.14333
535 179 1 3.57267 5.72948 -3.47889 3.70279 -0.790449 -5.43176
367 123 1 7.05216 1.48613 -3.99321 1.73017 -5.78682 -7.10959
446 149 2 1.29084 2.72177 -3.44737 7.06941 7.54245 -15.4678
504 168 2 -0.880705 -1.84554 -1.30938 -8.58021 3.54624 -3.98875
502 168 1 -1.04443 -1.6686 -2.30617 2.32691 -8.55865 1.94883
503 168 2 -0.699194 -2.4804 -2.82903 -0.283944 5.00003 2.17467
179 60 2 -5.77476 -1.86953 -3.02336 -1.00553 -13.5618 -7.91441
485 162 2 -2.9241 -1.28643 1.25191 -20.6418 13.6494 -4.75438
259 87 1 -4.0688 -6.00364 -3.04696 3.61979 -2.96178 12.818
282 94 2 -7.13902 -5.30747 -2.5165 -11.2084 -9.15481 -19.1001
501 167 2 -1.00489 -4.58125 -0.478795 0.747552 -0.502455 -1.01015
301 101 1 -0.217093 -0.0267159 0.801836 23.3924 6.33485 2.15487
94 32 1 -3.87659 -3.58954 -0.676172 -12.3991 -10.3419 2.87768
499 167 1 -0.539888 -4.29975 0.409774 -2.88233 2.598 21.2812
500 167 2 -1.26511 -4.22704 1.14257 13.4632 0.454024 -9.50624
95 32 2 -3.64047 -4.27193 -1.39434 3.38503 1.76122 -3.25017
96 32 2 -4.86232 -3.77378 -0.420641 4.25912 4.23749 -2.42328
353 118 2 -1.65622 -0.0615259 -2.19824 7.90028 9.08788 2.20257
149 50 2 -5.85244 -5.4893 0.817788 2.98939 1.1708 -2.90781
370 124 1 -1.44832 -5.0181 -1.87536 -46.3528 -9.79591 17.1075
371 124 2 -0.579551 -4.85046 -2.33915 16.2746 -3.93794 -26.0366
372 124 2 -2.20911 -5.59028 -2.30587 21.8221 9.79116 -6.62999
148 50 1 -5.28791 -5.8068 1.60599 4.73485 -0.576499 -8.83804
486 162 2 -2.81759 -2.53613 -0.0068907 -20.9617 3.8347 -0.959363
484 162 1 -2.3753 -1.9025 0.677586 37.9134 -10.8421 -0.661399
450 150 2 -5.55514 -0.724863 -0.836099 0.331204 -5.01287 -0.816986
303 101 2 -0.889759 -0.359648 1.4726 -12.8604 -12.5791 6.05886
448 150 1 -5.79242 -0.565261 0.152654 -28.2799 -3.16779 -7.09709
449 150 2 -6.82204 -0.767642 0.268521 22.2696 -1.53552 -3.34149
287 96 2 -2.64268 -6.82784 -0.0694714 3.1768 -11.969 -1.9249
178 60 1 -5.41425 -0.978007 -2.71268 7.50165 32.9163 6.37309
268 90 1 -6.62375 -4.12449 -0.208289 13.0582 -16.7232 6.06758
270 90 2 -7.01101 -3.24408 -0.528105 -10.2899 5.34786 -4.12899
326 109 2 -3.0233 -0.00814006 2.91699 3.46198 -12.9431 2.77961
150 50 2 -5.38022 -5.10591 2.32525 -5.4139 5.81555 17.2503
93 31 2 -3.23152 -3.0005 1.98861 4.22616 -1.52176 -9.92788
91 31 1 -3.2103 -3.14315 2.99328 -9.25137 -17.6385 8.0646
158 53 2 -1.30075 -6.04901 2.82406 -4.33987 -17.0699 -7.22071
505 169 1 6.77735 -2.73865 -2.95607 -1.29157 16.672 -14.5213
506 169 2 6.73954 -1.73231 -3.11607 -0.597114 -2.65083 14.2752
600 200 2 1.79804 -4.38728 -2.51169 -5.37567 -0.0649822 -12.3693
598 200 1 1.09856 -3.67237 -2.74676 10.982 -7.71408 15.2494
20 7 2 3.60887 -0.506285 -2.93667 16.4948 -13.9383 -4.52026
253 85 1 4.10734 -4.37196 -2.44955 -7.5588 -3.2962 -17.8832
254 85 2 4.05378 -5.34811 -2.13263 2.40407 -3.17555 1.3698
57 19 2 5.09354 -6.26124 1.78375 5.36499 16.9916 2.9926
599 200 2 1.37751 -2.95766 -2.06968 -6.12731 6.16916 -5.78273
269 90 2 7.10158 -4.73857 0.251234 -9.79036 7.92609 -3.14747
56 19 2 5.13044 -4.68329 0.97816 2.79958 -31.4385 10.4977
55 19 1 5.45637 -5.69012 0.987534 -7.66788 20.698 -18.3473
548 183 2 0.926141 -3.31613 0.46362 -1.04552 -6.52449 1.57239
547 183 1 1.53265 -2.52967 0.191418 -6.35691 0.656657 -6.10582
277 93 1 5.93244 -1.09845 0.179498 15.8949 4.69345 7.29311
549 183 2 0.838841 -1.79513 0.0515247 5.28377 11.5532 5.81032
18 6 2 4.26342 -3.79668 -0.901636 -6.59221 10.1596 1.79097
17 6 2 3.20644 -2.87961 0.063958 -13.7453 -0.326489 -3.29883
16 6 1 4.12664 -3.32459 0.0184858 21.8564 -4.51459 4.96745
278 93 2 5.29141 -1.87338 0.354257 -7.3028 -5.46504 -4.65379
279 93 2 5.56547 -0.452695 -0.519468 -5.89989 1.7906 -9.10565
6 2 2 3.20942 -2.54058 2.31511 -2.16576 4.19441 -7.15848
4 2 1 3.30591 -1.6835 2.85773 19.8871 -30.8862 28.3453
593 198 2 0.511114 -6.07204 0.105192 -3.36738 -1.8483 3.8964
592 198 1 0.255541 -7.05606 0.0149789 -7.98152 -0.489056 -14.4667
61 21 1 4.83725 -7.195 3.1145 -4.9039 -15.8011 -24.3901
5 2 2 2.88787 -0.881348 2.46422 -19.373 23.9827 -16.6778
398 133 2 4.60207 -6.41034 -0.338053 1.75056 -2.28566 -5.23558
397 133 1 4.13257 -6.85466 -1.15233 4.11957 -1.53417 -0.564945
496 166 1 5.61499 -3.56717 3.20139 -12.3053 5.29459 -0.636136
498 166 2 5.61854 -2.59141 2.91912 -2.5238 1.69199 0.771503
374 125 2 -4.72743 7.18744 2.05139 -11.0586 -22.9774 -0.862244
373 125 1 -4.52806 6.15305 1.92318 3.97921 14.1274 14.0558
232 78 1 -4.41758 2.07353 -1.60392 0.412219 -4.32541 -10.365
233 78 2 -3.40567 1.85913 -1.60123 -2.99311 6.02808 0.188904
375 125 2 -3.73361 6.24363 1.30387 16.5099 -7.60937 -11.3595
302 101 2 -0.624925 0.780405 0.353743 -5.55829 5.05475 -9.5582
352 118 1 -1.71967 0.962061 -2.02263 -30.4132 -19.0328 12.1515
354 118 2 -0.949241 1.46621 -2.41318 21.054 4.7013 -14.9492
38 13 2 -5.21866 3.31292 -2.7458 5.6975 0.161725 9.53928
419 140 2 -1.35817 3.68795 -2.15914 -0.559963 -9.21757 -6.01061
286 96 1 -2.43812 6.57334 -0.118183 17.2584 6.80974 -5.20512
418 140 1 -2.0952 3.8507 -1.48779 12.5699 -9.07437 0.111254
420 140 2 -2.22194 4.83708 -1.51397 -13.4627 24.7865 6.75783
288 96 2 -1.39504 6.48334 -0.238405 -22.9346 8.35264 6.21159
234 78 2 -4.91408 1.26441 -1.26523 -2.37196 -4.53859 7.11319
340 114 1 -5.64627 5.68185 -0.395205 -8.70656 0.0211157 -17.3475
342 114 2 -5.37198 5.63748 0.602356 10.393 4.36443 -8.4063
573 191 2 -4.30336 4.12367 2.07105 4.68866 -15.4883 4.12451
341 114 2 -4.85149 5.82902 -1.04103 -8.21886 -3.83725 15.8443
572 191 2 -3.15231 2.94507 2.56293 16.2825 1.54655 6.23342
571 191 1 -4.08674 3.12343 2.24774 -20.1372 17.2192 -8.92333
54 18 2 -7.11164 5.79404 -1.31964 5.83542 4.5307 -3.51063
390 130 2 -4.54627 0.0241703 0.945628 -8.84314 -1.23575 -3.91058
388 130 1 -3.82166 0.516444 1.49098 15.7675 -17.2857 6.26014
389 130 2 -4.20002 1.42959 1.71194 -4.97443 21.5798 2.48289
274 92 1 -0.909321 3.88509 0.927762 -26.9999 -13.3841 -12.9459
275 92 2 -1.29969 3.4506 1.768 12.0131 3.09156 5.17405
276 92 2 -1.60091 3.68649 0.151579 23.6121 11.2961 11.6016
462 154 2 -6.98989 5.0079 2.84104 4.19949 -4.46037 8.99123
320 107 2 -1.81346 6.43664 3.18345 5.3459 2.75076 1.67259
48 16 2 -6.72721 2.85612 2.99432 2.92205 -5.14308 -10.6267
321 107 2 -1.08058 5.97763 1.79929 5.53683 -3.43418 -7.78052
461 154 2 -7.02712 5.98141 1.49104 6.01467 3.14117 -1.83375
319 107 1 -1.08927 6.71613 2.49738 -9.73557 -4.89289 17.1903
537 179 2 3.22408 6.38658 -2.79489 -6.26014 8.02999 6.19189
536 179 2 3.76309 4.85372 -3.01313 3.31764 -6.71863 1.93446
30 10 2 7.15721 0.84509 1.0673 1.55759 4.87168 4.82036
594 198 2 0.793813 6.7704 0.6541 12.454 -1.76388 4.63579
531 177 2 5.98811 1.05203 -2.67765 -0.839355 -12.0941 0.883991
53 18 2 6.5647 6.96147 -2.34367 8.98904 -16.9588 1.91377
52 18 1 6.4834 6.01183 -1.9206 -14.1255 13.7297 1.4265
333 111 2 5.62221 4.28157 -1.14687 -2.4464 -12.2109 -21.3709
297 99 2 5.61058 4.47916 1.9274 -5.29351 -1.8192 0.232041
460 154 1 6.83623 5.62867 2.27087 -12.5118 0.0469658 -6.65742
445 149 1 0.55732 2.15131 -3.06799 4.30259 17.6786 45.6718
447 149 2 0.642289 2.4626 -2.0633 -5.27062 -10.6983 -25.5436
329 110 2 1.09555 3.59066 -0.0528244 0.386354 11.922 -10.882
328 110 1 1.57054 3.83938 -0.938644 -7.46403 -17.7438 8.17508
330 110 2 2.53231 4.07855 -0.722707 2.93971 3.10626 2.38109
167 56 2 3.24754 6.68703 0.584633 -7.88266 -3.41778 -8.83509
311 104 2 0.912593 0.353461 2.31628 -7.69995 -2.294 -7.60051
312 104 2 2.06252 1.27562 3.07005 -0.572606 -0.782698 7.67346
331 111 1 5.00792 3.46316 -1.00723 12.4215 25.2793 -7.62505
296 99 2 4.33109 3.40113 2.24851 2.79889 -1.78822 7.75737
166 56 1 2.5873 6.38679 1.29881 19.1957 12.5704 16.5312
168 56 2 3.08666 6.61925 2.17663 -12.2553 -6.69034 -8.27447
332 111 2 4.91857 3.67267 -0.00163207 -13.1075 -14.7723 15.4432
295 99 1 4.82007 3.94113 1.52512 1.90847 1.85963 -0.708681
530 177 2 4.86932 1.60333 -1.73205 -7.53951 14.9033 15.5365
529 177 1 5.25872 0.718218 -2.02028 8.47494 -0.930667 -12.9118
399 133 2 4.77981 6.89342 -1.60847 1.93852 2.46392 7.32831
28 10 1 6.91632 1.74714 1.48132 -13.3743 1.53476 -5.44522
29 10 2 5.96295 2.01652 1.19239 15.6251 -1.13301 6.83832
63 21 2 5.54785 6.59294 2.65925 -1.7001 6.29969 13.2915
50 17 2 -5.73042 -3.37251 3.26887 -7.68356 -11.7783 16.4127
159 53 2 -0.761559 -5.03349 3.94123 2.72193 6.48361 8.9537
325 109 1 -2.55691 -0.721108 3.5184 -0.345398 19.6649 0.027016
51 17 2 -6.08852 -4.07242 4.80726 -3.56364 -3.95265 -29.4324
327 109 2 -2.88112 -1.67912 3.24991 4.41736 3.97305 10.9852
111 37 2 -5.25997 -7.12439 5.61964 -5.96991 -10.9701 -3.37581
402 134 2 -2.77176 -2.68816 7.70081 -8.93584 -12.5247 -6.6623
192 64 2 -3.83549 -4.90383 4.81972 -2.95325 -7.6319 7.69267
190 64 1 -3.97061 -5.54952 5.60639 30.8764 -7.64373 0.560911
191 64 2 -3.01203 -5.84192 5.93314 -20.9214 7.78857 -11.3281
49 17 1 -6.27954 -4.10204 3.76413 24.7749 19.3344 20.4985
577 193 1 -0.246383 -3.92332 7.48625 -0.39716 11.9326 2.72634
579 193 2 -0.779294 -4.69368 7.0496 3.2906 1.82375 -2.82084
314 105 2 -0.458848 -6.304 5.50072 -3.01531 3.03796 -2.61722
313 105 1 -1.23993 -5.96585 6.08213 19.7601 -6.56402 -1.48105
315 105 2 -1.31142 -6.7204 6.77127 -15.3843 -5.27694 4.09957
400 134 1 -3.6445 -2.77275 7.1573 21.1184 13.8375 9.30935
401 134 2 -3.93654 -3.71337 6.88078 2.69617 -3.86757 3.05183
155 52 2 -5.8134 -4.12368 7.69598 0.521009 2.42859 10.6985
154 52 1 -6.09728 -4.00274 6.73052 -16.1254 2.4451 -20.6134
26 9 2 -0.299069 -1.82926 7.849 -13.0209 12.4245 7.14282
238 80 1 -3.35884 -6.0806 8.97569 -14.0581 -26.2091 -30.8373
250 84 1 -6.86642 -4.20074 9.29956 -0.454323 -3.78232 19.2263
519 173 2 -3.66976 -0.846386 9.30565 5.82532 -0.290842 9.38481
157 53 1 -1.55009 -5.20149 3.33189 -2.03191 18.9113 -7.99745
92 31 2 -2.57207 -3.94064 3.21002 -2.79394 2.92999 -2.35304
156 52 2 -7.11613 -4.199 6.75789 2.60759 -1.60317 -5.20558
615 205 2 -1.01309 -0.413968 4.80696 -0.95839 0.986161 -4.4938
604 202 1 -4.62902 -0.791305 5.87084 5.24808 1.83184 12.6311
605 202 2 -3.99573 -0.474257 5.14614 9.4707 -0.190043 -7.63994
606 202 2 -4.13865 -1.55308 6.43033 -14.1993 6.84414 -12.678
25 9 1 -0.814522 -0.926081 7.80748 11.3596 -14.5982 -6.66246
27 9 2 -0.797363 -0.7082 6.79863 2.62686 2.13872 1.47252
613 205 1 -0.0764008 -0.462388 5.22508 -1.16716 2.84908 -2.80773
575 192 2 -6.32899 -0.91328 5.84807 18.1087 2.43481 -1.38944
576 192 2 -7.01367 -2.39513 6.04999 3.06932 8.22828 2.36335
240 80 2 -4.05202 -6.4086 8.26456 15.9595 9.85312 16.7793
62 21 2 5.15666 -7.03552 4.09741 -0.334245 0.357384 -0.30331
578 193 2 0.752521 -4.01184 7.23607 -2.68005 -6.74779 4.1656
213 71 2 4.9377 -2.4621 9.18777 -9.2928 0.116873 1.40671
346 116 1 0.987805 -6.97263 4.39348 -12.8058 4.84462 3.33318
347 116 2 0.448842 -7.13291 3.5338 4.65483 -5.37415 0.225961
113 38 2 6.58443 -7.07776 5.8395 15.5649 -7.17185 -1.20064
497 166 2 6.56926 -3.80275 3.51626 3.59342 -7.91456 -0.742394
112 38 1 5.62678 -6.98715 5.53262 -7.94139 11.3255 4.50568
71 24 2 1.84992 -6.53216 8.0241 -0.229954 6.70051 -3.65318
348 116 2 1.82764 -6.38571 4.2494 -0.640245 -3.46993 -0.797542
291 97 2 2.51317 -5.00148 6.03475 -3.30167 2.27372 11.4238
289 97 1 2.32384 -4.7555 7.02997 27.0265 -0.696034 -8.81536
513 171 2 5.05582 -3.72534 6.02944 9.24481 -18.1927 -4.06672
511 171 1 5.73234 -4.43795 6.34639 -7.26264 21.7484 12.5775
512 171 2 5.60391 -5.39558 5.98201 -6.44542 1.23308 -8.5739
290 97 2 3.23643 -4.51142 7.47298 -21.9601 -3.90752 -2.98904
102 34 2 1.75334 -2.47087 4.00232 -31.6031 -14.8535 0.524786
527 176 2 3.65699 -4.66459 3.89097 23.3521 14.8313 -16.5545
526 176 1 2.82838 -5.04991 4.28565 -45.3232 -6.82716 18.8516
528 176 2 1.93833 -4.49515 4.13889 27.4647 0.675711 -2.56683
101 34 2 0.0911955 -2.72781 4.46105 20.5782 -0.0549717 -7.5743
100 34 1 0.940802 -3.14487 4.03028 11.2725 16.4186 7.08314
574 192 1 7.18786 -1.39908 5.89511 -26.2025 -15.1156 6.15789
614 205 2 0.598742 -0.0060808 4.56887 -7.66498 -5.61043 3.54257
181 61 1 5.32008 -0.2346 4.28058 -18.3384 -31.0331 26.5817
182 61 2 4.53664 -0.908051 4.12147 16.1425 16.2391 -6.04341
183 61 2 5.78737 -0.555269 5.17118 2.39934 9.41314 -29.7769
72 24 2 1.02536 -6.98385 9.41826 11.6434 -5.95264 -10.0715
70 24 1 1.8873 -7.14601 8.83582 -10.149 0.572682 14.6756
404 135 2 5.33301 -4.01532 8.58366 -6.37591 -6.27767 2.74208
405 135 2 4.24874 -4.96667 9.44876 4.92612 7.53968 0.179781
403 135 1 4.3971 -4.01798 9.02835 7.21296 -14.7802 -16.0001
126 42 2 6.68437 -0.324968 8.63558 -11.0921 -18.466 -3.64467
565 189 1 -1.53414 3.23213 3.68615 -20.0667 -20.5218 5.90147
567 189 2 -1.87361 2.50531 4.36454 12.3544 18.6215 -11.0876
591 197 2 -5.55421 4.91224 6.16293 -2.61628 -22.8418 -10.8503
589 197 1 -5.46658 3.8598 6.15693 16.5203 5.81716 6.82783
110 37 2 -5.77721 6.40458 6.89106 -3.34362 2.47978 -2.38949
109 37 1 -5.76521 6.40538 5.85753 12.2845 30.9281 17.7799
562 188 1 -2.93011 5.61657 4.44857 11.2038 -9.81812 -20.1333
563 188 2 -3.86054 5.3934 4.12295 -12.6197 5.25772 -4.61816
564 188 2 -2.96216 5.65898 5.45304 3.67581 6.37033 21.2917
582 194 2 -5.5497 6.11775 9.46964 2.3674 -3.34352 7.32618
581 194 2 -6.87244 6.98078 8.94139 -0.791049 -1.86533 5.27094
580 194 1 -5.88922 6.76828 8.7621 3.41713 2.36984 -15.3124
590 197 2 -5.42661 3.55133 5.17117 -11.8988 5.56156 8.52824
137 46 2 -6.46532 3.35593 7.70171 4.03675 12.7863 -8.79916
46 16 1 -6.69549 3.46184 3.81426 -14.4515 -9.70048 0.752699
566 189 2 -2.11931 4.07622 3.73439 6.41161 2.76169 12.4022
493 165 1 -0.783748 1.67776 8.81893 11.5507 -6.80761 -6.81711
546 182 2 -2.26626 1.4173 7.10168 2.79486 -1.64055 -25.6186
545 182 2 -3.46171 1.88411 6.13652 -1.36069 -1.06482 -5.43133
544 182 1 -2.52467 1.48533 6.09427 -1.59132 8.60598 29.3845
494 165 2 -0.762004 0.657175 8.54742 -7.74199 17.9225 12.7389
23 8 2 -0.699032 3.34144 8.23 -5.61601 20.6488 -11.3575
22 8 1 -0.861791 4.31652 7.86454 21.7352 -31.1166 7.03426
162 54 2 -5.78308 0.472815 8.58807 -5.56706 2.48297 -3.08502
161 54 2 -4.88659 0.272839 7.12325 -7.53721 1.04097 8.49805
160 54 1 -5.05153 0.866515 7.96485 13.4797 -6.37815 -12.2367
495 165 2 -1.49749 1.9291 9.52371 -6.60357 -17.6903 -5.42469
510 170 2 -4.02352 1.39121 9.00613 0.318902 4.34498 10.8467
24 8 2 -0.221691 4.50951 7.07343 -3.68298 -8.87625 2.1769
509 170 2 -3.52136 2.89751 9.38736 -0.573679 -6.47546 10.7086
409 137 1 -2.27496 6.34969 7.45423 -17.4929 27.289 -6.69472
411 137 2 -1.66302 5.53981 7.68589 -3.98281 -6.17027 10.7199
410 137 2 -2.6699 6.89372 8.25 9.24237 -10.6735 -7.32937
310 104 1 1.37505 0.527794 3.20519 10.5574 6.71329 -4.19323
587 196 2 4.58421 1.14121 3.57004 7.48268 -6.05166 5.86498
588 196 2 4.49322 2.48695 4.48456 2.00471 2.37417 3.21377
586 196 1 4.17921 2.08406 3.60062 -9.24946 8.66197 -12.0194