ITEM: TIMESTEP
12000
ITEM: NUMBER OF ATOMS
648
ITEM: BOX BOUNDS pp pp pp
-7.3492345243096651e+00 7.3492345243096651e+00
-7.3492345243096651e+00 7.3492345243096651e+00
-1.6331632276244122e+01 1.6331632276244122e+01
ITEM: ATOMS id mol type x y z fx fy fz
489 163 2 -5.30626 -1.9419 -12.9746 6.72564 4.50572 -11.4854
487 163 1 -5.35623 -0.993972 -13.3709 1.86734 -11.8068 19.1454
170 57 2 -1.39284 -5.8594 -12.01 0.192341 7.81408 -23.5415
172 58 1 -6.69897 -2.2898 -10.6767 -32.8468 -10.4924 -5.22037
173 58 2 -6.87353 -2.64746 -11.6298 16.7793 -0.312833 7.38206
174 58 2 -6.05754 -1.5153 -10.6356 14.277 11.0292 4.49095
169 57 1 -1.3473 -5.2486 -12.8622 -0.586364 -25.9426 22.0347
621 207 2 -1.71884 -2.22691 -10.3203 3.30768 0.59975 -4.15418
208 70 1 -4.84201 -5.8217 -14.1729 -6.53636 -0.827855 23.6185
142 48 1 -6.29971 -3.82707 -12.8856 11.9603 1.06793 -8.31479
224 75 2 -0.209037 -2.58832 -11.5832 9.04721 -0.132859 -13.6614
143 48 2 -5.79586 -4.3213 -13.6383 5.90916 -4.71706 8.50192
144 48 2 -7.16538 -3.61058 -13.3345 -22.6044 4.17517 -9.98987
171 57 2 -1.67906 -5.73231 -13.7077 -1.35483 3.42729 -0.290004
361 121 1 -2.46037 -6.01591 -15.3178 -2.83376 -21.4305 -7.57587
362 121 2 -2.12392 -5.19381 -15.8054 7.33312 11.5334 -3.5468
585 195 2 -1.55847 -0.673288 -14.5259 0.991667 -5.32096 -4.0425
223 75 1 -1.0238 -3.15425 -11.4021 -14.8042 -6.09689 15.5268
225 75 2 -1.15523 -3.99623 -12.0211 8.5394 14.5849 -2.38409
210 70 2 -3.92662 -5.77938 -14.6433 9.37367 3.36936 -0.707375
209 70 2 -4.69644 -5.90607 -13.1495 1.65213 0.876699 -13.1181
363 121 2 -2.28333 -6.83692 -15.9384 8.29916 12.0244 12.0444
488 163 2 -6.20792 -0.585992 -12.9457 -4.3804 5.20404 -10.3393
583 195 1 -1.04396 -0.303414 -13.7289 -3.78853 -8.3562 -12.764
449 150 2 -0.332154 -6.65256 -10.0876 3.90019 -4.11868 -4.17339
471 157 2 -3.73645 -0.593325 -10.0122 4.7133 10.7021 -1.05142
450 150 2 -1.91869 -6.87059 -9.94075 -0.301651 -8.2685 -7.73827
492 164 2 -7.14831 -6.62406 -12.9609 -0.927591 3.52559 0.253235
490 164 1 -7.18581 -7.17012 -12.0981 3.18982 9.75912 -10.2502
448 150 1 -1.11987 -7.12274 -10.5509 -3.3094 12.0537 12.5904
32 11 2 -5.13134 -5.16494 -10.9175 -0.426303 11.6841 1.71927
31 11 1 -4.74532 -6.08648 -11.0631 -6.80275 -4.80874 -5.51622
33 11 2 -5.54864 -6.65919 -11.3618 2.14181 -4.11578 3.76825
392 131 2 -3.04627 -0.537629 -16.0983 -16.1558 2.35037 -9.89093
631 211 1 2.01187 -5.3228 -15.2894 2.61146 1.56187 -15.4176
11 4 2 6.69752 -3.56537 -10.0401 10.6692 5.51952 10.9144
118 40 1 4.97102 -6.27638 -10.9164 9.0587 -13.5303 -0.941343
120 40 2 6.00267 -6.24409 -10.8884 -9.56866 -7.36857 -2.69267
599 200 2 6.22966 -1.3853 -10.7704 -15.5053 0.574422 8.69325
632 211 2 1.8537 -6.31878 -15.0833 -0.223833 7.11708 9.2881
633 211 2 2.44495 -4.7656 -14.5439 1.74203 -7.75971 11.0571
598 200 1 5.24843 -1.07288 -10.6288 15.2866 -6.74159 -7.99776
600 200 2 4.62714 -1.84637 -10.3733 4.57266 -2.39471 3.40124
433 145 1 6.97815 -0.0306132 -12.9241 -10.2315 6.12747 -9.01469
282 94 2 6.87968 -1.70522 -14.8572 5.50194 4.92578 1.9439
280 94 1 6.1754 -2.42561 -14.9232 3.34367 -11.0144 -0.322064
281 94 2 5.22338 -2.01185 -14.8498 -1.6266 -2.1006 5.6132
84 28 2 3.65578 -2.94188 -13.5144 -8.31924 -4.94804 -5.31023
82 28 1 3.32413 -3.8788 -13.2346 10.0043 8.48953 0.239595
514 172 1 6.05205 -5.35284 -14.2515 3.40608 14.1941 13.9685
83 28 2 3.5205 -3.96913 -12.2328 -3.84529 -2.22016 2.83335
515 172 2 5.71131 -5.45453 -13.2997 -6.40931 -4.41331 0.541261
516 172 2 5.75221 -4.43042 -14.5884 0.876745 -0.257166 -3.78944
191 64 2 3.63148 -4.87199 -10.2281 11.6563 3.50925 -10.2949
27 9 2 3.84709 -0.520111 -13.8479 5.33172 -19.0235 -6.51911
25 9 1 3.8521 -1.37479 -14.4598 -12.0294 32.4443 11.5818
26 9 2 2.99965 -1.21302 -15.0177 -2.70937 -5.92648 1.66631
626 209 2 6.30134 -6.08311 -15.5883 3.07188 1.02879 7.02783
119 40 2 4.66994 -7.24155 -11.1444 0.544363 15.9922 2.02056
188 63 2 0.318198 -7.16421 -13.6712 -8.44289 3.24379 -1.06747
480 160 2 4.33672 -0.0377508 -11.594 1.90504 -4.72942 6.71023
12 4 2 5.47431 -4.58785 -9.83155 -0.192659 0.538148 9.74538
190 64 1 3.67368 -3.86011 -10.4003 -18.4031 -3.82245 0.393823
192 64 2 2.83441 -3.50601 -9.90694 10.4049 4.4353 4.05704
580 194 1 1.10926 -0.834619 -15.2785 3.33546 -5.81426 -17.3553
582 194 2 0.977795 -0.221177 -16.1062 2.10078 -2.64702 13.3996
581 194 2 0.282385 -0.778071 -14.6526 7.53681 6.9962 4.15998
15 5 2 1.14166 -2.43876 -16.3073 -0.803501 -1.97004 -9.10746
527 176 2 5.63578 -0.699718 -16.1861 -3.74272 -11.4548 17.7923
163 55 1 -4.80885 6.596 -15.7164 -8.50639 -9.47587 5.42345
165 55 2 -4.58859 7.34194 -15.0689 5.07415 15.7233 3.46721
164 55 2 -5.60562 6.19679 -15.1888 -4.9498 -4.24678 -14.0524
141 47 2 -5.11721 0.273433 -15.381 8.69182 -3.29272 -0.574178
584 195 2 -1.82171 0.00217472 -13.1117 4.59664 4.31862 5.8051
294 98 2 -0.101466 4.29361 -12.7204 -16.7568 -4.33335 4.80265
129 43 2 -4.08683 3.11034 -11.1868 -9.09801 5.86646 -1.13587
127 43 1 -3.3473 3.52589 -10.6144 10.5347 -3.79746 -1.74071
128 43 2 -2.60036 3.76998 -11.2693 5.92601 7.54093 9.23529
622 208 1 -7.30727 4.68483 -12.0526 3.74168 6.57661 -18.2702
646 216 1 -5.25206 3.19468 -12.5441 -1.43833 -11.3931 -18.5906
482 161 2 -3.36707 1.52583 -12.3133 9.15346 -0.950836 0.0634482
293 98 2 -0.139444 3.96161 -14.4415 -12.9227 -14.5712 -6.10507
199 67 1 -7.16116 5.5857 -14.6148 -1.27589 -5.25355 15.7287
647 216 2 -6.07567 3.80334 -12.3428 7.14107 5.4749 1.07117
648 216 2 -5.1958 3.10274 -13.5796 6.27989 1.30941 13.3877
342 114 2 -0.98134 5.7369 -11.0593 -0.828701 -0.881446 2.39307
340 114 1 -0.813651 4.72323 -11.143 -2.98715 10.9168 -7.83743
341 114 2 -0.231082 4.41958 -10.3624 0.501566 -5.41317 1.58155
139 47 1 -4.22277 0.507449 -15.8216 -8.09172 -0.877703 4.67512
481 161 1 -3.14331 0.547125 -12.4847 -29.2263 12.883 9.55766
483 161 2 -4.07901 0.128107 -12.6064 12.1058 -10.6397 -7.46393
67 23 1 -5.69702 2.06028 -10.0376 -11.908 -13.5827 10.9175
491 164 2 -7.28862 6.56625 -12.4271 3.39621 -7.39637 9.87851
68 23 2 -6.08168 2.42924 -10.9164 10.7508 8.62277 4.22973
182 61 2 -0.0902081 1.19469 -10.2218 -4.35666 2.40905 -5.40779
197 66 2 -1.75149 2.99953 -15.7861 5.20196 2.99429 3.38096
196 66 1 -0.740689 2.92656 -15.654 -18.7763 3.84947 -8.12228
140 47 2 -4.01915 1.48587 -15.6159 -5.29417 4.93455 -2.919
64 22 1 -5.03689 3.18509 -15.2941 -12.0804 0.434231 30.4642
65 22 2 -5.72329 3.91773 -15.1461 -11.2142 3.06609 0.72806
66 22 2 -4.39463 3.71408 -15.9367 7.68524 -15.3267 -7.25881
60 20 2 -6.37368 2.09657 -15.0705 -0.673448 3.48292 -4.55904
435 145 2 5.98255 0.089646 -12.6932 0.797403 -1.97708 2.81399
434 145 2 7.11105 0.566586 -13.7576 2.7338 0.856848 4.02494
145 49 1 2.72372 6.4793 -11.6705 10.3664 -7.56925 -13.956
123 41 2 5.88728 0.663273 -10.2689 7.57589 4.62989 12.5439
292 98 1 0.36674 4.31926 -13.6276 29.1331 19.9686 6.81437
200 67 2 7.00073 5.16748 -15.3693 -6.39755 -1.46091 -20.8473
147 49 2 2.60643 6.91417 -10.7442 -8.99723 1.86788 5.12384
612 204 2 5.17869 3.57492 -13.3575 4.85042 -7.42093 11.31
611 204 2 6.28173 2.36872 -13.7462 -8.61587 8.77485 13.5165
610 204 1 5.79273 2.83328 -12.9378 1.24154 2.08526 -29.0152
623 208 2 6.82945 3.90263 -12.4622 -10.5624 4.52415 17.7325
226 76 1 2.29004 2.46773 -14.0437 9.05687 -6.00266 33.3267
228 76 2 1.51717 3.11398 -13.7976 2.751 -1.43575 -10.641
227 76 2 2.53369 1.98685 -13.1532 -3.63525 5.486 -22.2445
189 63 2 0.868255 5.94371 -13.8687 -4.41567 0.00647153 -5.03601
187 63 1 1.0624 6.94812 -14.0203 15.0117 -2.57886 7.18883
298 100 1 4.42877 5.03604 -13.7697 -10.0275 5.29734 5.54847
299 100 2 3.75458 4.80884 -14.4889 0.334805 -6.40862 -10.2529
300 100 2 3.86611 5.62879 -13.1473 8.25901 -0.983478 7.76104
58 20 1 7.31428 1.9191 -14.9739 8.27135 -11.5949 16.7677
624 208 2 7.03371 5.04632 -11.1303 2.25428 -15.0057 -1.34948
146 49 2 2.06842 6.84909 -12.3657 0.511434 1.91398 1.66316
463 155 1 1.53272 3.24151 -10.6737 5.84469 16.838 -7.44088
465 155 2 1.54831 4.09753 -11.2571 4.50989 -17.2658 9.8685
479 160 2 4.72205 1.4825 -12.1318 2.68418 14.1892 -3.14333
464 155 2 2.47503 3.08865 -10.2718 -1.19352 1.88499 -5.62981
478 160 1 4.27914 0.603777 -12.3932 -9.5241 -6.40776 -13.3937
44 15 2 5.04032 2.98459 -9.99549 -2.31013 -2.79324 8.45451
201 67 2 6.94047 5.40789 -13.7871 12.6622 3.78719 -8.99234
540 180 2 3.6424 2.1753 -15.0774 -7.88144 4.34113 -7.24354
538 180 1 4.24571 2.0732 -15.9126 3.27123 -6.90593 4.2219
59 20 2 6.90898 2.31319 -15.8139 -11.3418 3.53243 -13.6475
237 79 2 -3.78674 -6.15269 -9.47531 -3.07264 -6.9888 4.54571
206 69 2 -1.11215 -4.98743 -8.56456 -3.24111 3.20187 0.849049
205 69 1 -0.104599 -5.08788 -8.55202 -0.179458 -4.99771 -2.19617
469 157 1 -4.58845 -0.32643 -9.51259 -16.3797 -2.87946 12.4148
235 79 1 -3.19243 -6.48843 -8.69672 11.122 1.75634 -3.87805
236 79 2 -3.72758 -6.66449 -7.84656 -4.36189 3.4173 -6.64036
620 207 2 -2.40905 -2.25856 -8.82486 -3.69691 -1.64014 5.75484
619 207 1 -2.03345 -1.63763 -9.5248 -2.52641 6.31776 2.38482
634 212 1 -4.44263 -1.03749 -6.60845 -21.134 17.7515 11.4649
636 212 2 -4.26859 -0.715807 -7.57031 -6.58609 1.01747 -1.5473
639 213 2 -7.18153 -5.05166 -8.60375 -2.50963 5.41384 -0.82593
149 50 2 -2.2586 -1.45093 -4.0671 -4.26197 -2.56696 -1.74504
38 13 2 -6.07629 -1.16593 -3.30958 -4.00558 3.60883 -8.56603
635 212 2 -5.37024 -0.671646 -6.23908 19.4438 -16.3409 -17.6072
425 142 2 -4.73427 -2.72879 -7.01793 4.2055 10.2386 0.366435
424 142 1 -4.86645 -3.72867 -6.8565 -3.4109 -11.3091 1.09259
426 142 2 -5.087 -3.8218 -5.87271 -0.0848688 -0.548018 5.20032
637 213 1 -6.47889 -5.53701 -8.02477 5.72697 -10.6485 8.30918
638 213 2 -5.8372 -4.85094 -7.57798 -3.10934 -0.452221 -6.23113
148 50 1 -1.9194 -2.31621 -4.49482 -0.327173 -8.57061 1.49836
150 50 2 -2.44348 -3.12269 -4.11675 5.30163 6.4873 0.874653
306 102 2 -3.81663 -5.60901 -3.51207 2.42433 1.49222 -11.0056
304 102 1 -3.15894 -4.92564 -3.91245 -0.0899988 6.76743 3.41804
549 183 2 -0.252757 -2.36245 -5.68976 18.3579 -10.9008 15.449
183 61 2 -0.925883 -0.138833 -9.46922 -3.66998 0.588662 -9.77695
505 169 1 -7.0369 -0.587989 -5.93213 1.28595 18.2535 -8.50439
246 82 2 -3.74894 -0.177415 -5.24201 11.5024 -1.77114 3.99248
305 102 2 -3.01111 -4.92975 -4.9185 -5.04224 -9.12383 0.963888
97 33 1 2.11339 -7.07411 -9.3101 0.44371 0.964296 0.686249
98 33 2 2.43387 -6.1101 -9.19726 -6.70663 -8.69272 8.0449
10 4 1 6.30917 -4.21899 -9.3537 -3.41536 -1.91609 -13.4814
309 103 2 5.63799 -6.87476 -6.8002 -1.28749 10.7172 -2.94234
308 103 2 7.13883 -6.98481 -7.60175 -20.8344 3.16833 1.86838
21 7 2 6.74603 -2.29699 -3.48786 5.05136 0.452765 -9.30897
207 69 2 0.386288 -4.19258 -8.57835 1.97133 0.137958 -0.856018
229 77 1 4.62914 -5.64531 -6.163 -0.0226397 -16.1997 2.91064
230 77 2 5.04062 -4.72231 -6.16018 -2.51083 10.2863 4.24632
336 112 2 6.24913 -3.55741 -7.17701 -3.81455 14.3789 -9.94785
334 112 1 5.91884 -2.82588 -6.53161 9.09439 -14.8431 7.70965
81 27 2 1.97043 -2.07823 -8.45659 6.52184 1.93143 5.53638
90 30 2 1.38341 -0.284552 -8.72435 -6.14407 9.20415 -15.0689
88 30 1 2.13042 -0.481419 -8.05618 -1.42922 -11.0761 -9.40304
19 7 1 5.98188 -2.80032 -3.9399 -4.27152 -16.2402 13.0894
231 77 2 3.98029 -5.81201 -5.36209 5.08494 9.0643 -5.60125
79 27 1 2.03403 -3.10325 -8.33907 -13.0989 -8.46271 2.85594
80 27 2 1.88987 -3.28605 -7.33916 2.85884 0.664417 -5.43386
335 112 2 5.68805 -1.9194 -6.96572 -12.95 -2.74937 -17.1636
259 87 1 4.93147 -0.532196 -7.68611 17.9572 -12.1996 13.9351
272 91 2 2.57523 -7.13197 -5.60865 4.32792 -3.18061 -7.58625
548 183 2 0.910801 -1.31184 -5.48296 12.9197 10.8379 2.55398
547 183 1 0.757742 -2.30969 -5.43051 -24.9453 1.87521 -16.8724
260 87 2 3.93249 -0.734902 -7.84526 -0.316388 17.7487 -3.22749
20 7 2 6.01237 -2.87598 -4.98298 7.41556 9.86241 5.57885
414 138 2 2.79534 -2.68428 -4.52647 2.77269 -3.78233 4.88407
507 169 2 6.9823 -1.24291 -6.31193 1.26987 -5.65891 3.70751
413 138 2 4.25419 -3.13687 -3.76552 -8.01339 12.7578 1.4479
412 138 1 3.3164 -2.70223 -3.64083 -8.44227 -0.982808 -1.12928
609 203 2 0.126328 -2.08829 -3.3577 -8.36901 -4.86092 -5.96603
386 129 2 3.38789 -6.22604 -3.30738 -2.69596 5.27733 9.27126
385 129 1 2.86527 -6.06757 -4.1874 19.6712 -13.6507 -27.2779
387 129 2 1.8944 -5.85928 -3.96824 -13.4915 5.71851 17.2123
470 157 2 -4.96097 0.648491 -9.61287 11.8051 -11.0467 -9.30563
270 90 2 -1.48564 0.415441 -5.04938 4.32284 -0.652859 2.92874
269 90 2 -0.530997 1.73259 -4.61414 -9.77213 3.72375 -0.360844
268 90 1 -0.52174 0.788504 -5.00747 -0.270149 3.39767 1.73307
181 61 1 -0.0463871 0.361941 -9.64581 14.1103 -9.27283 16.1759
105 35 2 -3.90683 4.02302 -8.71277 0.522603 6.88793 -6.7826
244 82 1 -3.08847 0.277826 -4.57685 -11.0125 -3.56703 -15.3725
245 82 2 -2.99254 1.2627 -4.86396 -9.26589 2.90601 -0.821606
506 169 2 -7.25927 0.334682 -6.3573 4.32157 -4.64002 10.8133
103 35 1 -4.61425 3.6712 -8.06334 -2.61024 -16.4415 5.06133
104 35 2 -5.25509 4.35365 -7.65517 1.11621 9.81335 0.527667
85 29 1 -6.60106 5.08808 -6.56431 18.5912 -8.95273 -5.52306
86 29 2 -6.19816 5.16323 -5.61824 -6.02034 3.8766 -1.78363
87 29 2 -7.32736 5.77611 -6.75385 -4.43352 11.0249 6.19999
24 8 2 -6.46496 2.3658 -5.59552 -11.9472 -4.04123 -4.69525
22 8 1 -7.10503 2.2474 -6.39411 9.57551 -9.36156 16.6849
645 215 2 -3.54183 2.96403 -6.69674 -0.899097 7.24484 -15.8426
312 104 2 -1.49398 2.99228 -8.93309 8.04796 -9.36132 -4.96783
310 104 1 -1.00621 3.52517 -8.22245 -8.20413 25.3181 19.0843
23 8 2 -6.90995 2.99262 -7.04193 1.64237 7.53423 -10.7079
644 215 2 -2.10969 3.3914 -5.80188 -15.048 -8.36849 -13.5315
643 215 1 -3.07677 3.02352 -5.79576 17.7529 -1.3826 28.4671
311 104 2 -0.045447 3.26398 -7.93331 1.89187 -9.14968 -12.3599
69 23 2 -5.27113 2.74647 -9.38087 -3.67678 -0.182258 -9.47073
589 197 1 -5.71806 5.06785 -3.53133 -8.54782 16.2349 -13.113
563 188 2 -1.22814 4.27139 -3.60778 6.07588 -16.8426 0.445801
7 3 1 -1.11916 6.29694 -7.01866 6.55756 -7.57782 -9.70733
9 3 2 -1.47857 6.96684 -7.70694 1.10405 -3.13385 5.223
8 3 2 -0.890322 5.4116 -7.50965 -6.16846 7.34361 6.36538
503 168 2 -7.27207 5.46267 -8.93355 4.02479 5.35351 11.6764
35 12 2 -0.690457 6.51926 -5.22698 0.315109 -2.21446 14.1353
562 188 1 -0.950885 3.26863 -3.68929 -5.07326 16.8891 -6.98075
486 162 2 -2.93352 4.75644 -4.65602 -8.86961 7.76179 10.4026
484 162 1 -3.19206 5.54307 -4.0347 5.42077 -7.72631 -19.0634
485 162 2 -4.21948 5.59375 -4.0735 -5.1608 -6.68059 10.2963
34 12 1 -0.774505 6.40259 -4.19732 6.58852 3.57724 -25.6912
36 12 2 -1.80036 6.33775 -4.07115 2.36205 -3.94093 8.73579
122 41 2 7.22944 1.62953 -9.74299 0.780759 -5.97435 -1.33754
99 33 2 1.94737 7.16514 -8.40201 5.81876 8.44375 -5.63923
121 41 1 6.2123 1.50539 -9.76257 -6.42888 0.63458 -7.2226
307 103 1 6.22878 7.2301 -7.40656 21.9666 -14.3161 0.62859
89 30 2 1.82963 0.0254518 -7.24514 4.21337 11.9664 20.7036
261 87 2 5.2133 0.457259 -7.73395 -16.227 -4.71712 -6.10539
283 95 1 2.00395 0.427239 -5.13517 3.96468 6.52054 8.06245
285 95 2 2.46177 0.227149 -4.23308 -8.37321 1.75172 -2.67163
284 95 2 1.01384 0.776461 -4.9967 15.7013 -16.4468 -6.52625
153 51 2 4.11194 6.31408 -3.57878 16.4862 6.73145 10.7354
456 152 2 4.87876 6.16022 -7.82297 2.83981 2.01307 -15.7294
476 159 2 2.45273 2.87895 -7.12617 -13.6501 6.17691 -17.7085
273 91 2 1.34278 6.7045 -6.18045 0.402008 -4.64107 -5.48123
271 91 1 2.33177 6.88509 -6.35089 -5.75357 5.36718 12.9335
43 15 1 4.15669 3.44642 -9.73974 -4.25295 4.23998 11.1837
45 15 2 4.23097 3.95278 -8.82639 -0.724886 -5.75614 -22.5818
454 152 1 4.07096 5.54473 -7.99651 7.45721 23.1793 47.7625
617 206 2 3.23667 1.44981 -5.81073 16.9432 15.4548 -15.3122
618 206 2 4.58773 2.60091 -5.96159 -16.5761 -11.4474 -4.877
616 206 1 3.79709 2.10306 -6.4211 -2.50095 -0.228134 19.7954
455 152 2 3.4693 5.95446 -7.22994 -5.05585 -15.2673 -26.4111
477 159 2 2.04964 3.76675 -8.48858 8.33619 5.41839 -14.2758
475 159 1 1.66561 3.28706 -7.69642 5.06648 -13.8548 34.8289
502 168 1 6.77904 5.2804 -9.67929 -7.50118 -1.47976 -3.60374
504 168 2 5.82875 5.5862 -9.49099 -4.97611 1.2742 5.86198
445 149 1 5.58042 4.47365 -5.68247 -8.81287 4.94925 2.21151
446 149 2 6.53349 4.09193 -5.76784 -7.05812 0.241087 -1.17925
447 149 2 5.27218 4.94561 -6.54444 1.55629 -11.0385 6.73075
564 188 2 0.0468047 3.20818 -3.54136 13.5122 3.64118 8.03638
151 51 1 5.05505 5.95911 -3.34619 -23.018 -18.3037 -30.7641
152 51 2 5.2067 5.31999 -4.16212 11.6799 6.31983 11.572
39 13 2 -4.83373 -1.69604 -2.42583 13.4116 -10.3308 7.0442
37 13 1 -5.79263 -1.90839 -2.6906 -8.01275 7.89464 -0.889197
558 186 2 -3.28975 -3.13395 -1.41039 4.34547 -14.0888 -2.15991
557 186 2 -2.90543 -1.76151 -0.644859 3.97927 11.3676 7.91435
556 186 1 -3.18168 -2.12856 -1.55222 -9.55084 2.94948 -9.61978
179 60 2 -0.27812 -5.50316 -2.60734 -8.68671 -0.352767 -0.89325
444 148 2 -0.253401 -5.90369 1.0454 2.90669 1.00461 3.38951
350 117 2 -5.29043 -5.12374 3.05989 3.61021 9.32157 1.31044
349 117 1 -5.18696 -5.43199 2.09125 -16.852 2.08176 -2.53049
351 117 2 -4.22921 -5.7658 1.97169 8.25923 -11.8573 -11.3751
238 80 1 -3.26353 -4.88476 -1.00352 2.45488 19.5706 3.14687
240 80 2 -3.48253 -5.48225 -1.80618 -3.5646 -4.86233 7.66962
239 80 2 -2.89723 -5.48187 -0.251193 0.191308 0.941228 -1.5472
537 179 2 -1.51923 -0.444242 0.238556 -10.7085 -3.91836 7.73384
535 179 1 -2.45399 -0.660522 0.635343 12.3475 3.66334 5.74999
91 31 1 -2.93361 -6.70211 1.31198 -17.9344 -16.0005 14.0912
279 93 2 -5.1724 -4.23764 -1.08141 -0.0550866 -3.99904 -5.23435
277 93 1 -6.01484 -4.49549 -0.570757 -0.93939 9.23845 8.41613
92 31 2 -1.98961 -6.35202 1.30661 15.3064 9.46211 -10.0785
522 174 2 -0.496423 -6.98819 2.82211 15.8715 -0.91132 15.8257
347 116 2 -5.5521 -7.25382 -1.98882 -16.4003 7.90047 1.61832
346 116 1 -4.59901 -6.92729 -2.10853 17.3355 -19.3292 -20.7949
536 179 2 -2.39303 -1.1056 1.56903 -1.53325 0.558487 -12.5637
605 202 2 -6.83043 -2.26524 -0.628199 -16.673 -6.12052 2.11298
278 93 2 -5.63446 -4.88088 0.299208 -6.71472 -3.8207 5.60105
442 148 1 -0.795802 -5.50154 0.258752 10.6892 8.49283 -14.1323
254 85 2 -6.07936 -0.200841 -0.64554 -10.3246 -2.02728 2.90272
16 6 1 -2.4291 -2.20945 3.15867 12.1223 16.7135 2.79928
18 6 2 -1.53844 -1.69409 3.17014 -1.90633 -9.26002 2.25451
443 148 2 -0.419089 -4.53298 0.0700925 -8.62413 -15.5868 12.2997
252 84 2 -6.91173 -6.2454 3.11405 3.41205 1.00572 5.48318
319 107 1 0.419451 -3.25285 0.112683 20.9743 16.7195 -1.52408
321 107 2 0.548902 -3.27776 -0.903767 -4.01123 9.17102 -3.94502
320 107 2 0.859678 -2.39136 0.472624 -11.0657 -9.05892 -0.599196
330 110 2 3.82034 -0.494193 -3.17611 -15.0409 -1.68787 12.6612
178 60 1 0.72349 -5.64397 -2.59551 8.70761 1.29674 15.7424
180 60 2 1.05659 -5.71716 -1.62528 -6.15343 -0.482078 -13.8281
594 198 2 6.71197 -4.62312 -1.36588 9.27644 -11.5277 -9.61323
167 56 2 3.71046 -5.28917 1.95231 -6.67535 -0.286243 -5.53923
521 174 2 1.1573 -6.55738 2.84102 -5.52913 -5.21627 12.6639
592 198 1 6.42552 -5.06153 -2.25837 -3.4042 26.8679 9.13441
520 174 1 0.307607 -6.62764 2.27951 -3.28641 -0.904913 -15.1397
593 198 2 6.25602 -4.26612 -2.89586 0.995929 -7.57227 -0.972531
420 140 2 7.1374 -6.54354 -2.54492 -9.83661 12.3577 1.90522
608 203 2 1.62925 -2.26453 -2.78725 -1.5078 -0.325124 1.44227
607 203 1 0.661897 -2.06848 -2.4933 11.288 2.6123 4.63609
606 202 2 6.14739 -2.13714 -0.307911 1.49093 -7.80254 -4.87791
567 189 2 4.77194 -5.64853 -1.5981 6.31357 -0.96946 -8.01553
166 56 1 3.59889 -4.6341 1.17719 22.5521 15.2121 5.42475
168 56 2 2.70257 -4.62345 0.727357 -18.1605 -9.34754 0.0801403
566 189 2 4.16984 -7.09952 -1.11427 -2.07925 3.78341 5.98409
565 189 1 4.07809 -6.36402 -1.82747 -11.2336 -3.81362 2.3709
524 175 2 0.0791864 -0.695294 -1.36306 5.15445 -7.10033 9.0732
195 65 2 4.02169 -0.417587 1.17417 -12.6467 17.9358 1.34498
157 53 1 4.42274 -2.73338 -0.713473 13.0656 3.49288 11.0131
158 53 2 3.66628 -2.76511 -1.37781 -5.64382 -0.234747 -12.612
159 53 2 4.2499 -3.37503 0.0679157 -1.25312 -4.8615 1.35359
303 101 2 3.79958 -2.76883 2.29255 6.58014 -10.0171 3.40169
301 101 1 3.71225 -1.75867 2.24903 -0.623194 -5.54861 3.63012
302 101 2 2.72757 -1.60655 2.03675 -6.38547 5.58745 1.46534
604 202 1 7.07232 -1.69157 -0.303325 11.6685 16.9271 -4.85538
364 122 1 1.1542 -0.518651 1.63445 9.52424 12.4399 -6.32124
365 122 2 0.795824 -0.1095 0.737329 -9.49364 -16.6719 6.30784
590 197 2 -5.81882 4.14235 -3.10813 -7.07621 0.383486 4.26694
591 197 2 -6.40098 5.77728 -3.18532 6.66837 -9.73687 1.07646
93 31 2 -2.91115 6.96551 1.36231 -4.40458 0.177662 -3.91435
418 140 1 -7.29621 7.17112 -2.66039 5.54598 -34.4123 1.27301
96 32 2 -7.24602 3.06406 -2.27554 15.1732 10.8438 -3.35902
215 72 2 -2.56954 2.41774 -0.627505 -2.28836 -11.0247 -9.4185
214 72 1 -2.66819 2.46061 0.386424 4.60701 -4.11109 15.6603
348 116 2 -4.09999 6.93562 -2.43229 2.65453 7.35377 4.28441
110 37 2 -4.85104 3.60609 -0.73564 -2.75594 9.17372 -1.72525
111 37 2 -5.6262 2.23686 -0.570963 -10.1525 6.63167 -7.50448
109 37 1 -5.77454 3.21403 -0.901405 10.0178 -18.1864 5.7296
570 190 2 -2.59706 4.25155 0.790133 -2.75309 13.6516 0.787928
569 190 2 -3.58902 4.5662 1.93821 -3.39489 12.4155 3.24945
568 190 1 -3.02905 5.07337 1.25668 5.9929 -22.1582 -2.5213
253 85 1 -5.5604 0.54461 -0.189273 5.94643 -3.21607 -2.27399
255 85 2 -4.64145 0.121022 -0.0421098 3.78762 7.58913 4.71494
216 72 2 -2.48984 1.54848 0.844312 -4.57503 13.2143 -13.0941
133 45 1 -2.7475 1.74604 -2.43602 13.7538 -8.08693 7.04054
370 124 1 -7.2263 5.84129 1.61111 -10.7598 -13.5554 -0.56559
372 124 2 -6.84926 6.49212 0.949431 8.15896 8.51018 -8.36802
135 45 2 -2.89746 0.876461 -2.97464 -8.82732 6.57197 4.57192
134 45 2 -1.9493 2.18474 -2.92451 -7.9052 12.523 5.956
248 83 2 -6.29811 1.63218 1.54508 6.67255 0.427107 9.91497
247 83 1 -6.47576 1.94119 2.51176 -14.4345 -1.55712 -12.0185
328 110 1 3.3123 0.171095 -2.564 15.38 1.07828 -20.602
95 32 2 6.68124 1.91753 -2.89749 -1.5707 0.00925556 -16.9103
601 201 1 5.74546 0.933598 -1.58371 14.1081 1.98281 9.1888
329 110 2 4.11405 0.674139 -2.15264 2.40806 -0.307139 6.27444
523 175 1 0.189191 0.0907234 -0.699024 -8.73381 2.10154 -28.2083
525 175 2 0.30141 0.860417 -1.36925 2.60486 5.59906 13.3909
194 65 2 3.25516 0.52401 0.00970237 3.23886 1.24756 2.23222
193 65 1 3.5863 0.520031 0.976131 15.0374 -8.63961 -7.65329
94 32 1 7.25696 2.70764 -3.21235 -10.4422 -11.3974 22.5626
374 125 2 1.46659 4.6243 0.836556 -9.61363 6.43646 -5.54056
419 140 2 6.54871 6.57228 -2.70906 3.01799 17.9561 -4.0635
375 125 2 1.26927 3.02678 0.3234 -0.907525 4.19825 0.712789
115 39 1 1.00162 6.15061 0.0712313 17.6888 -10.0156 -23.1476
117 39 2 0.277631 6.62763 0.588332 -8.84612 8.76314 9.90347
116 39 2 0.784475 6.17016 -0.936325 -1.14899 1.65602 11.9751
371 124 2 7.17108 6.33374 2.44341 3.06638 2.95811 8.33335
373 125 1 1.56948 3.63833 1.08256 10.5947 -10.6699 -0.482465
545 182 2 2.93132 3.7309 2.17708 -8.72956 -1.65146 4.12376
409 137 1 5.76649 3.32371 -0.0209377 10.5364 -7.14611 6.56099
410 137 2 6.38901 4.08318 0.259501 4.29827 3.6562 1.40099
602 201 2 6.06098 1.49698 -0.792975 -15.3032 21.3514 0.862137
603 201 2 6.36078 0.165035 -1.35981 -0.648952 -25.2731 -8.08971
544 182 1 3.38964 3.87538 3.09488 8.50838 -1.83696 4.78644
550 184 1 5.48527 2.13977 2.47379 6.96524 -7.26832 -7.97222
551 184 2 5.58486 2.74707 1.64258 -2.42846 1.59224 0.723742
552 184 2 5.03906 1.29584 2.10009 -5.81895 1.54439 1.90472
614 205 2 2.8938 6.51656 0.339957 -14.6797 4.33139 0.987568
315 105 2 4.43917 5.07289 -2.14308 -0.22821 -2.25091 -5.62863
313 105 1 3.83053 4.53283 -1.50332 -4.55627 -1.5853 -1.68803
368 123 2 2.21879 1.58864 -2.35194 -7.53693 6.07751 6.39678
369 123 2 2.45277 3.12587 -1.84658 -0.980195 6.90734 2.11917
367 123 1 1.71656 2.43266 -2.01152 10.2751 -13.3685 -7.80215
314 105 2 3.54497 5.20237 -0.793017 1.36563 -0.99386 5.45632
411 137 2 5.2378 3.61352 -0.850145 -8.81936 3.22542 3.27485
615 205 2 4.07576 6.74505 1.44751 5.50219 0.777014 -0.771643
613 205 1 3.85214 6.8338 0.438511 0.346854 -8.76005 -4.71209
366 122 2 1.90949 0.158429 1.79518 4.47709 -3.87766 4.63562
511 171 1 4.19717 6.46614 3.03576 -5.47903 -9.30027 -16.0234
512 171 2 3.77884 5.50037 3.11426 14.1031 16.0287 5.07445
249 83 2 7.20076 2.12789 2.55332 10.8329 0.666235 1.24686
339 113 2 -3.93338 -3.71849 3.33718 -19.9555 -0.286836 25.9443
337 113 1 -4.6393 -3.75963 4.11844 19.4559 2.5299 -25.3855
400 134 1 -3.89097 -1.08359 5.09752 -0.831617 0.847242 -7.75941
338 113 2 -4.77296 -2.80116 4.42661 -1.11935 -6.12588 2.24204
359 120 2 -2.37352 -0.70955 7.36299 -3.17866 11.3826 14.692
579 193 2 -1.62945 -5.26464 6.54185 -1.25495 -18.6646 0.97616
333 111 2 -4.77117 -6.85474 4.82811 5.40147 3.78521 7.93288
331 111 1 -3.9253 -7.15635 5.32658 -22.6777 3.79956 -20.5491
126 42 2 -3.57918 -5.66484 6.13364 3.70854 -21.4713 -14.1411
250 84 1 -6.9147 -6.88794 3.91056 1.68711 -10.3825 -17.0649
251 84 2 -6.99238 -6.43263 4.82312 -4.94032 5.429 10.0333
125 42 2 -3.75583 -4.12896 6.58933 16.8794 -3.77423 -5.08956
124 42 1 -3.02842 -4.85411 6.41347 -31.5394 38.8575 19.5888
533 178 2 -1.65588 -2.04604 5.86472 1.1524 -11.9954 9.66102
532 178 1 -1.8489 -2.13805 6.87138 7.5707 17.617 -7.60661
575 192 2 -4.23548 -7.25958 8.45026 -4.10244 -10.7779 -1.91128
397 133 1 -0.35745 -4.12207 4.58807 -23.0781 -7.56438 -23.1789
399 133 2 -0.692035 -4.96491 5.07463 18.0116 2.57194 12.3884
402 134 2 -4.8646 -1.39081 5.17819 -1.22074 9.01133 12.4668
379 127 1 -6.92885 -1.5997 6.05505 -6.26454 17.0879 -8.19154
381 127 2 -7.29491 -0.627869 6.09222 2.22066 -13.2946 -4.13978
578 193 2 -0.181314 -5.03443 7.20988 10.7134 -4.97987 -3.61868
577 193 1 -0.703152 -5.75081 6.68311 4.93913 6.09398 18.3785
534 178 2 -1.78514 -3.08468 7.22509 -0.951181 -8.7414 -3.90186
63 21 2 -0.557138 -7.13371 5.5618 -6.12393 3.44734 -10.5739
398 133 2 -1.0448 -4.1517 3.82361 13.2391 14.8864 2.11416
501 167 2 -6.31223 -5.96083 6.97045 -3.70036 -8.82887 -2.70747
499 167 1 -7.20366 -6.0445 6.45272 5.88077 11.9019 13.1804
401 134 2 -3.49702 -0.833376 6.0197 -8.51527 0.29509 0.889393
574 192 1 -4.82783 -6.47129 8.12834 -1.03982 16.9466 -2.03874
576 192 2 -4.1047 -5.76426 7.98734 -7.22489 1.64321 -0.0588545
17 6 2 -2.98123 -1.82056 3.94981 -1.24966 -2.23645 -5.82451
597 199 2 -0.612381 -7.27237 7.7992 6.83393 4.05032 -4.81009
458 153 2 -5.64358 -1.91855 7.35366 -2.22185 -10.3963 -5.40812
457 153 1 -5.0267 -2.69411 7.6403 -5.47304 -17.0592 28.5464
459 153 2 -5.52877 -3.2869 8.34437 10.4048 16.9593 -18.0627
108 36 2 -3.97169 -1.70294 9.2082 -1.60251 -6.00466 3.31479
3 1 2 0.518599 -0.626909 5.17236 -2.10646 0.697008 -2.94652
1 1 1 0.0892741 -0.492158 4.23861 14.0616 -6.53234 -2.37561
2 1 2 0.80902 -0.598273 3.49193 -18.7148 1.99114 8.98969
380 127 2 7.03545 -2.26181 5.75527 5.81325 6.86457 6.85899
175 59 1 4.67072 -1.15909 4.91146 -8.75467 0.96318 -1.86968
176 59 2 5.20959 -0.337749 5.19458 2.46142 1.73203 -7.69468
177 59 2 4.34668 -1.15178 3.92925 7.19716 0.00978251 4.3581
5 2 2 1.42743 -3.65678 4.40634 -0.938286 -3.11396 4.50416
4 2 1 2.45631 -3.70137 4.34902 0.0306211 -6.49726 -8.67316
6 2 2 2.92262 -3.36386 5.1929 -2.75664 -2.34581 3.70108
256 86 1 0.739905 -3.76117 7.96481 1.04497 -3.94302 -3.24528
258 86 2 1.60195 -4.25233 8.26616 -8.05398 2.50222 1.3393
257 86 2 0.0356438 -3.80434 8.70541 1.68548 1.65022 7.69451
296 99 2 3.21955 -7.18233 3.75957 -0.859854 -1.30633 3.60143
295 99 1 2.51568 -6.81871 4.42096 -14.9985 1.19586 6.83579
297 99 2 2.57637 -5.82266 4.60733 3.24213 9.97428 -3.23936
573 191 2 5.73951 -6.94716 5.93025 6.12881 1.98577 -0.552309
500 167 2 6.96986 -5.19301 6.72577 -5.00634 0.80795 -6.29927
440 147 2 2.32495 -6.46755 8.4049 4.23067 0.789049 -7.46836
263 88 2 0.643776 -0.248056 7.50443 -5.86177 -4.15356 -1.41227
262 88 1 0.992831 -0.965319 6.86064 1.84769 -22.1423 -3.57694
264 88 2 0.610426 -1.92033 7.06552 2.9915 22.1698 5.43665
427 143 1 3.44467 -2.62335 6.76609 -1.25989 -1.76953 -19.8496
428 143 2 2.47379 -2.35195 6.75803 -15.319 0.00215916 17.7725
429 143 2 3.79151 -2.01457 6.00625 21.6339 2.50856 3.97333
462 154 2 2.55541 -0.0888127 7.56862 0.432104 -0.347498 -3.93781
408 136 2 5.00021 -3.48115 6.87688 1.75779 -0.0857824 0.593393
406 136 1 5.99715 -3.74987 6.92559 2.8578 2.34325 4.61078
407 136 2 6.39397 -3.14253 7.67191 -7.51634 -4.88054 -1.64516
439 147 1 2.47434 -5.75101 9.12504 -3.26103 -16.8329 13.9642
30 10 2 6.09416 -1.36766 9.57902 4.41364 -7.59708 -2.82462
28 10 1 6.42981 -2.25329 9.17767 -12.4728 9.70563 -5.62906
29 10 2 7.25287 -2.61441 9.65856 8.81288 -5.18767 9.71421
222 74 2 -1.40461 4.00773 4.23273 -1.69538 -8.85814 -1.2779
220 74 1 -1.86246 4.86437 4.51877 -11.5149 -0.280099 5.85212
358 120 1 -2.98125 0.126181 7.55633 -8.80391 1.3969 -11.839
332 111 2 -3.74894 6.64789 4.88349 9.60081 -6.62824 6.12617
596 199 2 -1.02724 6.70985 9.20239 13.7091 -2.90253 -6.49542
62 21 2 -1.57025 6.51632 4.7134 4.92875 -11.6665 -3.88856
61 21 1 -0.842899 7.2305 4.62403 10.5515 21.8804 3.49999
360 120 2 -2.70519 0.748146 8.32955 9.72853 -14.4654 0.387018
221 74 2 -2.60451 4.73652 5.21405 -2.9633 -7.17124 -1.01461
595 199 1 -0.287437 6.73187 8.47776 -15.8997 0.746005 13.7317
291 97 2 -2.57959 5.71316 9.00335 16.8866 -15.328 31.2958
289 97 1 -3.21324 6.24542 8.46355 -7.73837 -2.05819 -32.4146
290 97 2 -3.21008 5.78969 7.53767 -9.45342 8.10684 5.91899
431 144 2 -1.72579 1.9606 9.74269 1.42564 1.16645 8.86303
50 17 2 -0.979126 0.798215 4.50457 1.82563 -1.23452 -5.24511
51 17 2 -2.62413 0.897734 4.29553 7.90452 7.37213 2.01622
317 106 2 -4.50915 3.89281 5.6208 -5.40312 -16.408 -5.02951
316 106 1 -4.26527 4.79047 6.03463 6.9318 5.68052 1.03615
49 17 1 -1.77068 1.45528 4.41165 -15.6667 -1.96496 -0.022867
318 106 2 -5.15476 5.27026 6.13364 1.31775 5.28078 3.8068
100 34 1 -5.40209 2.49885 4.97185 11.5528 -23.0364 8.9241
353 118 2 -0.906611 2.25722 5.99013 4.11269 -12.4374 2.5119