ITEM: TIMESTEP
7500
ITEM: NUMBER OF ATOMS
648
ITEM: BOX BOUNDS pp pp pp
-7.3402641208961459e+00 7.3402641208961459e+00
-7.3402641208961459e+00 7.3402641208961459e+00
-1.6311698046436167e+01 1.6311698046436167e+01
ITEM: ATOMS id mol type x y z fx fy fz
129 43 2 -2.3611 -1.11121 -14.4988 8.99685 -19.2112 -3.76411
128 43 2 -2.93497 -2.67968 -14.6794 -3.73759 10.9553 1.35877
127 43 1 -2.18138 -2.10882 -14.2565 0.90323 7.71428 4.80888
633 211 2 -5.42354 -2.69053 -14.7401 -7.20519 -2.14391 8.048
631 211 1 -4.52901 -2.86198 -15.2159 -7.23995 1.96235 -17.1642
632 211 2 -4.76942 -2.86979 -16.2244 11.7681 -3.72242 3.60878
23 8 2 -0.668744 -2.4444 -12.2982 2.90111 -0.922894 11.6002
139 47 1 -7.01218 -2.85237 -14.1398 -8.52302 5.75858 -5.93637
543 181 2 -1.05597 -5.00481 -12.8238 -0.595842 0.72283 2.06177
541 181 1 -1.60339 -5.87631 -12.8295 -18.2913 -20.5697 -14.5733
542 181 2 -1.80266 -6.3646 -11.906 12.4573 15.1757 -11.5298
489 163 2 -4.73588 -4.55469 -10.2947 -7.71575 -6.54702 -7.03341
487 163 1 -5.20708 -5.04992 -11.0702 9.59245 7.23192 13.1549
626 209 2 -4.39088 -4.44572 -14.8432 -3.58501 -2.52224 2.77783
625 209 1 -4.42248 -5.42325 -14.498 -0.248019 1.04324 -3.29109
627 209 2 -3.55111 -5.59312 -14.003 4.431 -4.2787 2.18086
15 5 2 -0.840614 -7.03448 -14.8863 2.96508 0.992411 -11.3524
13 5 1 -0.442544 -7.14688 -15.8301 -8.04918 8.07861 14.1913
636 212 2 -1.00743 -3.06905 -13.8683 0.26105 4.74913 -13.0023
634 212 1 -0.255962 -3.71146 -13.5416 23.5928 -9.37911 12.7536
294 98 2 -5.53118 -6.08047 -16.0334 1.37153 7.16016 2.62285
237 79 2 -6.71133 -6.22357 -12.0671 -4.91801 -5.22682 -0.559955
235 79 1 -7.20039 -7.0488 -12.4364 5.56044 15.5199 1.41762
14 5 2 -0.551305 -6.25093 -16.3084 -0.755115 -0.252302 -5.2403
469 157 1 -1.81458 -7.17704 -10.6831 -7.00831 0.0795096 3.19317
488 163 2 -4.65467 -4.69811 -11.8464 -3.1222 -4.40999 -9.64773
588 196 2 -7.22768 -0.898514 -14.1844 7.96253 -8.36141 5.31456
586 196 1 -7.10687 -0.103172 -14.8039 8.39862 27.6888 -10.8053
363 121 2 -1.96732 -3.27958 -10.4704 6.23417 10.9862 -4.45647
361 121 1 -2.75593 -3.85304 -10.2082 -16.3071 -17.8792 10.173
22 8 1 -0.736861 -2.13254 -11.3124 -15.7473 12.1722 -13.1069
284 95 2 -1.1883 -0.694692 -10.3692 0.721774 -1.87178 6.86471
231 77 2 -5.4776 -6.49592 -10.0452 -1.38076 -3.90923 5.67986
24 8 2 -0.269593 -2.74961 -10.6514 13.6293 -0.882792 7.72876
471 157 2 -1.30995 -6.54162 -10.0446 -0.156207 -4.67238 7.50086
27 9 2 6.95714 -2.36807 -9.97074 -3.64144 8.82331 -3.84317
141 47 2 7.02941 -3.18567 -14.8882 6.85884 2.01016 5.26424
637 213 1 2.40662 -0.810649 -11.2743 3.19212 23.8245 -1.80915
140 47 2 7.25707 -3.1069 -13.2436 -0.759131 -11.2123 -2.87081
639 213 2 2.92662 -0.0930311 -10.7294 7.67854 -5.20253 -10.5222
190 64 1 5.45182 -4.46066 -13.1441 0.848445 7.52547 8.12512
192 64 2 5.69585 -5.21066 -13.7919 2.94884 -4.32734 -15.6014
90 30 2 6.37289 -1.95605 -12.2996 -9.17657 4.10108 2.83598
515 172 2 4.12646 -4.45839 -9.96493 3.42582 9.40132 -8.13421
160 54 1 2.74246 -2.75332 -14.8601 3.73992 -6.07009 -0.180463
516 172 2 4.1707 -5.98772 -10.3739 4.1086 -12.7596 -4.30411
514 172 1 4.68086 -5.10395 -10.535 1.90497 19.242 11.9701
89 30 2 5.85195 -0.634116 -11.4669 -4.14112 2.35119 -2.42268
434 145 2 6.24556 -4.73482 -16.0469 1.36921 15.8787 -3.87449
635 212 2 0.609743 -3.72243 -14.1024 -12.9369 8.71745 1.13796
599 200 2 5.65034 -7.01039 -15.3862 -6.11252 6.43908 7.81932
600 200 2 7.03802 -6.49551 -14.6511 -2.59239 0.730412 3.75427
598 200 1 6.14772 -6.16951 -15.0351 14.1798 -0.117136 -11.626
282 94 2 3.57254 -0.947835 -12.633 8.35393 2.33816 -2.7849
280 94 1 4.35339 -0.713018 -13.2757 -12.1042 1.08323 1.5102
162 54 2 3.03528 -3.55448 -15.429 -8.24592 -4.9064 -2.5413
191 64 2 5.30678 -4.94881 -12.2593 -5.54928 7.10695 12.8454
88 30 1 6.35055 -1.51591 -11.3809 11.1552 -2.99066 -1.14877
170 57 2 0.891227 -4.96778 -11.7392 5.7551 -8.13701 -5.04469
97 33 1 3.42071 -7.30131 -10.3294 -3.50292 -2.88977 -10.4521
638 213 2 1.74006 -1.10275 -10.5807 -12.8298 -12.3294 2.8004
144 48 2 3.60837 -5.69366 -15.8685 -8.10664 9.45122 -11.3038
206 69 2 0.785252 -4.12081 -9.98019 2.15643 -6.88725 8.17547
169 57 1 1.14206 -5.58781 -10.9666 -10.2762 15.312 7.4454
171 57 2 2.03753 -6.06057 -11.0943 2.84762 -3.75024 -1.30236
477 159 2 4.06328 -2.14355 -9.92252 -1.38178 -0.728187 4.56386
527 176 2 0.96856 -2.58271 -15.9004 14.5097 8.64159 0.53849
161 54 2 3.52128 -2.52466 -14.2448 0.327872 4.74897 6.79872
423 141 2 3.59961 -1.52224 -16.1368 -12.3347 15.2565 -6.43659
73 25 1 -2.086 0.0461307 -15.9107 7.40295 9.18923 5.42047
539 180 2 -1.61356 1.2379 -13.9018 -17.8294 -0.80447 -13.6932
538 180 1 -2.33236 1.97528 -13.8033 40.6183 -5.56161 16.3456
188 63 2 -2.45503 5.33725 -12.6489 6.74126 7.31492 -1.01588
189 63 2 -1.55057 6.70019 -13.0775 -6.39151 0.700522 6.55901
187 63 1 -1.95924 5.82872 -13.4299 1.72827 -3.8578 -7.04494
587 196 2 -6.19356 0.405325 -14.7356 -9.42761 -15.5503 2.23725
198 66 2 -2.38884 5.16005 -15.0397 -3.57456 -3.59756 2.59767
246 82 2 -4.0186 4.81975 -10.7402 3.95125 6.84884 -2.9494
540 180 2 -1.77759 2.49722 -13.116 -15.5898 10.1161 -4.38091
481 161 1 -5.31585 3.05606 -13.1084 -5.87572 7.82356 -1.11113
482 161 2 -5.0599 2.43218 -12.3586 3.37789 -5.53925 5.67849
245 82 2 -3.04723 3.67151 -11.292 4.96866 10.295 -2.21469
244 82 1 -3.18604 4.69282 -11.3413 -8.13788 -21.6904 6.75477
470 157 2 -1.90899 6.61673 -10.2045 -0.972189 -8.59757 -1.74813
583 195 1 -2.93705 1.73353 -10.048 3.09462 19.1147 21.3816
555 185 2 -3.58217 1.1083 -14.7472 -9.28937 8.05772 2.89352
553 185 1 -4.55663 0.959077 -15.08 0.519381 -4.8459 9.91924
554 185 2 -4.48252 0.118895 -15.6599 -5.06933 4.84263 -5.28947
483 161 2 -5.09556 2.59577 -13.991 3.59436 -4.0877 -3.51316
531 177 2 -5.42017 4.82878 -13.0924 -5.83626 14.5048 -14.8365
529 177 1 -5.4482 5.81893 -13.4404 6.12801 -19.0519 16.7749
530 177 2 -4.49084 6.14707 -13.3536 1.19671 3.90548 -4.57034
236 79 2 -6.5008 7.0402 -12.9008 1.83892 -10.1269 -1.22593
83 28 2 -0.355856 5.45339 -14.2652 2.96063 -6.91908 6.93945
585 195 2 -2.14567 1.09024 -9.81199 -5.7366 -3.4904 -11.8717
81 27 2 -6.17172 4.26948 -9.91455 -1.07708 -3.79787 3.15656
196 66 1 -2.70331 4.55299 -15.8153 5.01884 -13.1766 -3.37519
197 66 2 -2.77701 3.57951 -15.479 -0.626845 12.5104 4.86029
612 204 2 -7.23599 3.61159 -15.737 6.5907 4.44054 -2.66806
200 67 2 2.89905 2.17102 -15.1721 4.98665 -2.77861 10.376
201 67 2 2.23546 0.926536 -14.3149 -0.884097 1.01731 0.355753
199 67 1 3.13322 1.37542 -14.5615 -6.27386 4.9892 1.2679
98 33 2 3.97748 6.88136 -11.0423 -8.28596 -5.27181 13.8627
329 110 2 0.73611 4.36807 -13.0838 -0.93325 -8.04202 -1.76568
328 110 1 0.460895 3.5479 -12.522 -3.52398 -7.18916 0.514723
8 3 2 0.835633 1.55688 -12.8069 -6.30541 15.2414 -6.88809
84 28 2 0.61055 6.04053 -15.3733 4.63533 0.308703 2.62255
82 28 1 0.616641 5.36506 -14.5916 -21.3436 11.9585 -2.7927
179 60 2 5.87479 2.67422 -14.0162 0.332712 -5.65709 11.4081
178 60 1 5.98424 2.18292 -14.8948 6.15118 6.95568 -14.9039
180 60 2 6.68868 1.42521 -14.8963 -7.50415 -2.89321 8.23404
335 112 2 4.34922 6.3358 -13.9009 0.831518 3.0292 -15.5249
7 3 1 0.831343 0.642158 -13.2521 5.0601 -0.00186833 13.9295
330 110 2 0.270149 3.87588 -11.5683 5.78027 7.66901 1.71317
9 3 2 1.24652 0.0499911 -12.5269 -0.209496 -10.9019 -6.07638
224 75 2 3.75775 2.34085 -12.8779 -0.852448 -0.0359591 -4.99422
223 75 1 4.23173 2.60073 -12.0122 -8.23275 -6.97211 8.79929
225 75 2 4.35974 3.63187 -11.9846 5.81468 -9.41951 -6.65097
271 91 1 5.33178 4.94294 -12.4439 15.896 17.4098 -7.29986
272 91 2 5.81874 5.10001 -11.5484 -2.30985 3.09399 5.32382
273 91 2 6.02502 5.21364 -13.1529 -7.94507 -1.74303 5.71657
281 94 2 4.0736 0.149695 -13.7765 2.2677 -4.05409 1.83049
479 160 2 4.08038 1.50395 -10.6683 3.12453 3.41081 4.60698
334 112 1 4.36053 6.56544 -14.9102 -4.9544 -12.794 14.683
226 76 1 2.67131 4.0896 -15.4351 10.4839 -0.890375 -4.66379
336 112 2 3.75873 5.88676 -15.3781 -3.34219 -4.32674 0.307303
228 76 2 1.74132 4.49452 -15.1658 11.8146 -1.45257 5.12686
548 183 2 7.3222 6.43401 -10.0018 -3.61177 0.321906 -3.63461
547 183 1 6.59496 5.7121 -10.015 2.37335 -4.64379 7.37893
478 160 1 3.93562 0.892776 -9.83896 -14.8204 -5.57866 -10.3131
118 40 1 0.348446 4.93484 -10.1204 -12.7813 -5.88518 17.4516
422 141 2 4.077 0.0177791 -15.889 -7.92768 6.74283 0.514295
611 204 2 6.12484 4.40984 -15.9589 -3.8229 8.90947 -4.13864
610 204 1 7.11644 4.48077 -16.1617 -1.09852 -10.5495 1.93187
227 76 2 2.53603 3.56207 -16.2933 -7.80993 1.10862 -4.06174
449 150 2 -7.31348 -0.910819 -8.45122 2.79951 -11.3624 -5.2714
362 121 2 -2.49194 -4.64395 -9.61519 5.4803 6.65335 -2.80335
283 95 1 -1.1877 -0.0568988 -9.54858 14.0017 -4.84104 -4.04081
311 104 2 -1.59412 -0.674504 -7.75688 1.10798 4.2469 3.26147
172 58 1 -6.54176 -4.06778 -6.98923 -6.10126 8.48059 -17.6672
173 58 2 -5.81854 -3.35835 -6.92333 0.267822 -2.16677 7.49867
229 77 1 -5.57202 -7.19051 -9.27994 1.69506 5.6419 -7.93489
621 207 2 -0.780124 -3.65282 -6.13389 10.1039 0.657745 -17.1349
620 207 2 -0.422895 -3.4397 -7.83489 -3.67677 6.60997 19.6489
619 207 1 -0.923839 -3.09064 -6.98729 1.4185 -20.909 -1.30915
624 208 2 -3.50649 -0.0218929 -7.15916 7.01725 4.28922 -12.6325
312 104 2 -1.85507 -1.68583 -6.50862 9.63012 -3.87884 -5.05203
310 104 1 -1.953 -0.706702 -6.79336 -9.30017 11.3872 0.43402
174 58 2 -7.05871 -3.79853 -7.85492 0.359008 -6.87317 11.1024
567 189 2 -4.45687 -1.37883 -3.39748 -8.48099 -6.42272 8.14247
592 198 1 -4.13847 -6.74913 -6.90497 0.510753 -0.4233 -21.08
593 198 2 -4.31554 -5.78145 -7.18907 -1.46754 -5.52405 -0.719226
413 138 2 -0.334137 -4.47931 -4.1481 2.01933 -3.95022 7.85044
105 35 2 -4.42539 -6.46107 -5.34696 15.4699 -13.9046 2.56258
148 50 1 -0.0959437 -7.03096 -6.21228 -1.74694 -6.54565 17.1189
104 35 2 -3.31188 -7.0144 -4.11784 7.21583 -1.42668 -9.51155
103 35 1 -4.22034 -6.60901 -4.33638 -17.4826 10.1947 21.3468
38 13 2 -6.06428 -7.12941 -3.35388 3.28395 5.18801 -8.66836
340 114 1 -0.698759 -6.07199 -8.58659 14.1628 6.15483 -11.7474
341 114 2 -0.595894 -6.44767 -7.63496 -3.39684 -0.518503 9.25413
618 206 2 -3.28069 -0.271088 -4.21775 18.2316 9.43832 3.91607
44 15 2 -3.89524 -5.01588 -3.42689 -1.97264 -2.7205 -2.40459
26 9 2 6.18793 -3.73488 -9.735 9.22793 7.55673 14.9037
25 9 1 6.73788 -3.02256 -9.21191 -6.64067 -23.512 -6.65464
369 123 2 6.4384 -3.25028 -4.81706 -1.96943 3.95301 6.13476
603 201 2 6.9584 -5.39855 -4.12239 3.37401 3.03061 3.23862
414 138 2 1.19644 -5.16804 -4.39548 -2.39035 -0.972748 0.938931
412 138 1 0.331774 -4.8271 -4.83173 -1.10035 6.15007 -7.22096
268 90 1 5.11109 -0.445211 -6.84667 -11.0912 3.76344 -0.882665
270 90 2 6.06578 -0.280629 -6.53687 1.30159 -0.86665 4.1832
216 72 2 4.88676 -6.04556 -5.42564 -0.0265074 4.2714 -2.31019
214 72 1 4.1831 -6.35958 -6.1006 7.04651 14.5387 -6.62294
123 41 2 4.7593 -2.26518 -6.99811 -6.23065 -1.05123 4.43237
215 72 2 3.70956 -7.19299 -5.81031 -13.8544 -1.54057 -4.12725
475 159 1 3.36815 -2.76907 -9.50372 1.30959 -8.30072 -4.69444
368 123 2 6.52056 -1.73851 -3.98342 4.69394 -9.95675 0.971841
367 123 1 6.45847 -2.22264 -4.89163 -4.88005 8.11762 -3.89569
601 201 1 6.33894 -4.94035 -4.80163 2.30967 -8.09109 0.605654
205 69 1 0.763167 -3.26168 -9.41725 3.19153 -2.80294 -13.8421
122 41 2 4.65493 -3.91602 -7.05046 7.52698 -19.4743 3.98642
121 41 1 4.11727 -3.08029 -6.93199 -0.137114 24.8256 -4.49742
207 69 2 1.71769 -2.85848 -9.54122 -4.24158 -6.99512 10.821
602 201 2 6.87024 -4.74959 -5.65891 6.02568 0.631607 -4.44181
563 188 2 3.36432 -2.12948 -5.55749 -14.1379 -8.74408 -13.0661
149 50 2 0.0175468 -6.12452 -5.69647 1.98434 -3.48768 -7.42021
562 188 1 3.16735 -1.76507 -4.62521 11.9624 -1.67639 -2.71019
564 188 2 4.14494 -1.74348 -4.35643 1.20031 6.56545 12.6986
476 159 2 3.54586 -2.96698 -8.50608 3.6587 7.62581 5.47591
342 114 2 0.2512 -6.10868 -8.98 -7.46326 4.3525 -2.6033
456 152 2 6.34409 -7.22406 -4.17244 -1.44324 -10.0621 2.53245
87 29 2 1.57769 -0.689349 -5.51414 3.57266 4.69368 -2.697
19 7 1 2.20878 -6.87226 -3.72765 -2.73827 -6.13004 26.383
21 7 2 3.21656 -7.03759 -3.78995 -9.24012 4.0029 2.31107
448 150 1 -7.0005 0.053511 -8.42911 -3.77165 20.1665 2.82867
584 195 2 -3.00194 2.34868 -9.19927 -6.02228 -2.33071 -19.6352
450 150 2 -5.99406 0.216919 -8.54475 5.96215 -10.6141 -2.70127
616 206 1 -4.08646 0.279223 -4.49392 -23.8443 -12.9017 -9.27897
617 206 2 -4.02027 1.27387 -4.28928 5.45242 5.19242 1.08263
68 23 2 -5.87344 0.695246 -5.74704 10.2229 -0.200805 12.886
285 95 2 -0.204781 0.218441 -9.37626 -1.76499 -3.16458 5.11248
230 77 2 -5.28649 6.55995 -9.59392 -0.948355 -6.35641 -0.884422
594 198 2 -4.37651 7.33421 -7.72019 -5.47031 12.0532 7.39238
69 23 2 -6.81043 0.674658 -7.02777 -7.60219 14.5213 18.4466
67 23 1 -6.74919 1.09753 -6.06198 -1.8186 -9.20748 -16.7785
80 27 2 -4.69462 4.07654 -9.02354 -4.41253 -1.14335 1.50687
79 27 1 -5.29791 4.69213 -9.60442 7.4242 9.23498 -7.15442
623 208 2 -3.65938 0.609547 -8.78596 -2.42296 -5.06129 18.4817
622 208 1 -4.10926 0.460905 -7.85671 -14.9645 3.57228 -9.35026
183 61 2 -3.74172 2.63814 -7.34708 -0.695555 -1.53723 -16.9891
181 61 1 -3.55214 3.39365 -8.02621 -3.99925 -7.36589 31.8399
31 11 1 -2.45684 5.76625 -6.60249 -13.0126 -14.6918 -1.48107
32 11 2 -3.02273 6.62696 -6.56586 6.86282 2.79562 -0.103275
502 168 1 -0.16652 2.98483 -7.62605 -1.03104 3.43799 -15.1125
33 11 2 -1.46192 5.90825 -6.45861 0.507756 6.03353 -0.431353
152 51 2 -4.32026 3.81626 -4.6734 1.33096 2.04871 1.4972
321 107 2 -0.261928 2.92788 -3.3771 -1.70136 -8.40541 5.25749
150 50 2 -0.138289 6.96221 -5.44806 0.412383 1.2133 -3.21024
182 61 2 -3.19048 4.12197 -7.39612 7.97777 10.492 -10.7428
119 40 2 -0.219985 4.29947 -9.55218 2.89349 -0.992546 -5.27574
151 51 1 -4.70692 3.02958 -4.15869 3.7191 -5.71001 -1.36286
153 51 2 -5.70299 2.93675 -4.35583 -1.32132 0.346282 1.82434
644 215 2 1.44062 0.0245374 -7.80494 -3.41611 9.94173 0.121192
645 215 2 2.36736 0.671775 -9.06346 2.22155 2.9701 3.15706
643 215 1 1.41111 0.519268 -8.71435 -4.48475 -6.37489 -4.0024
464 155 2 6.44726 1.50358 -8.30913 6.87643 -0.0455677 1.19688
485 162 2 5.68406 6.02111 -6.2577 0.401233 -3.05397 -7.2279
269 90 2 4.52619 0.375839 -6.66191 6.92474 -6.98532 -2.92623
319 107 1 0.552689 2.5771 -3.90035 -11.0683 -4.16245 5.77139
320 107 2 0.899295 3.41413 -4.34304 6.29557 7.99242 -6.27082
261 87 2 6.94956 1.57912 -4.55361 4.30752 -8.60912 9.84199
605 202 2 3.06396 0.824492 -3.30542 6.81946 -1.29845 -1.72051
99 33 2 2.85535 6.79699 -9.70439 4.28878 -6.40371 -1.7963
484 162 1 5.51891 5.86905 -7.26511 16.7538 12.1319 6.61661
486 162 2 5.76306 6.76868 -7.70173 -9.59239 -8.98448 1.34519
85 29 1 1.03135 0.0517039 -5.96709 -10.2083 -13.7779 17.0723
503 168 2 0.185247 2.27503 -8.28267 1.69876 0.681852 14.2415
504 168 2 0.0511878 2.78218 -6.6555 1.81161 -7.22216 -0.705356
454 152 1 5.75313 6.66467 -4.46458 1.47534 -0.149881 4.7357
455 152 2 5.76819 5.90707 -3.75284 4.12651 2.17286 -3.27835
259 87 1 6.599 1.64094 -3.58156 -12.7617 13.4823 -13.5423
209 70 2 1.94591 5.55677 -7.13866 5.91256 -4.59821 2.94484
86 29 2 0.126349 0.0624551 -5.46378 12.565 4.72952 -15.5072
11 4 2 3.86397 4.79104 -5.7701 -4.23644 -5.2337 -1.58289
463 155 1 5.66826 2.16553 -8.26728 -8.15745 11.8491 6.974
549 183 2 6.3521 5.47808 -9.04523 -4.05331 1.25169 -5.21826
12 4 2 4.06132 6.28754 -5.20225 0.338634 -16.1508 8.93625
10 4 1 3.36866 5.53042 -5.27879 3.06894 10.1826 -5.39436
480 160 2 4.52496 1.25291 -9.07157 6.86023 6.56557 -2.4755
120 40 2 0.708129 5.56843 -9.39749 9.15887 1.48152 -4.21891
465 155 2 5.86173 3.06248 -7.8047 3.80307 -12.3404 -5.40035
210 70 2 0.932038 6.81879 -7.35157 -0.13719 2.77813 2.85641
208 70 1 1.53989 6.15557 -7.84612 -5.12319 4.20322 -9.0758
442 148 1 0.315152 5.42236 -4.14034 6.58109 8.42054 10.6
444 148 2 1.14441 6.01894 -4.19493 -0.495538 2.54565 -4.30657
566 189 2 -4.45019 -2.86614 -2.52292 -1.88223 13.0577 -10.3707
490 164 1 -1.55624 -6.4114 -3.05342 0.196454 8.412 -12.3401
492 164 2 -1.3508 -7.10365 -2.33542 -0.533147 -9.96537 2.90495
491 164 2 -2.25578 -5.73822 -2.74693 -3.0471 6.34902 5.85534
565 189 1 -4.96052 -1.98162 -2.72655 5.77889 -10.0855 4.17859
277 93 1 -5.51903 -2.81548 0.493716 10.3642 2.38835 -2.68627
279 93 2 -5.13584 -2.46551 -0.390079 -6.0603 -0.112684 2.25439
615 205 2 -5.11122 -7.06819 2.21192 8.38512 -7.01538 -1.09694
278 93 2 -4.72985 -2.79648 1.17653 -10.4333 -0.137865 1.88662
557 186 2 -3.22442 -3.72047 2.45062 -6.44149 6.07682 1.10391
578 193 2 -2.74353 -5.24884 0.695426 6.5627 7.24211 -1.69377
350 117 2 -0.475995 -3.30156 -0.39781 -2.33133 2.23705 0.297911
558 186 2 -2.96167 -2.16469 2.87398 -3.44673 6.03217 0.147809
556 186 1 -3.69041 -2.80457 2.52162 15.4742 -18.633 -6.66335
579 193 2 -1.35732 -4.51772 1.48031 -3.97893 5.39344 -17.629
525 175 2 -5.04978 -6.671 -0.0166649 2.86425 1.18645 8.8005
524 175 2 -5.60919 -5.10282 0.218945 6.67679 1.33933 -0.42237
523 175 1 -4.96775 -5.69321 -0.32143 -6.78711 -0.282323 -11.4207
238 80 1 -1.82002 -0.0487742 -2.78425 -0.749303 13.8693 5.23654
43 15 1 -3.66644 -4.56056 -2.5366 -11.3166 -4.8885 7.3923
315 105 2 -6.29223 -1.09808 1.32844 8.17701 -0.397178 0.906248
45 15 2 -4.27201 -5.01258 -1.82194 10.0983 6.67408 0.498021
339 113 2 -6.74858 -1.71025 -2.53013 9.3941 6.61228 3.86057
349 117 1 -0.417506 -3.43748 0.607732 -0.547775 -1.96497 -5.9817
419 140 2 -0.479548 -6.68535 0.810014 1.72967 -1.54447 -5.28179
37 13 1 -6.73958 -6.48232 -2.94247 0.367738 -5.1471 14.9151
39 13 2 -6.3859 -6.33188 -1.98661 -7.52015 4.76878 -11.3661
313 105 1 -6.49403 -0.115601 1.132 -9.27114 21.4468 -5.26824
577 193 1 -2.09943 -5.24163 1.4896 -11.0862 -21.8288 20.4077
347 116 2 -3.38207 -6.2071 3.03324 0.97468 5.91124 -3.58264
425 142 2 2.32125 -2.93026 -3.0655 -5.37536 1.52561 -2.52075
424 142 1 2.55396 -3.41976 -2.20015 9.35969 0.126217 -14.0054
426 142 2 3.47767 -3.05631 -1.97806 0.766721 -0.417298 12.4895
550 184 1 4.97491 -2.12212 -0.563882 -13.5296 -0.978825 5.95736
551 184 2 5.70232 -1.9979 -1.27997 9.75732 -3.10562 1.19457
360 120 2 7.20633 -3.0627 0.829691 -8.81544 -8.88417 25.3487
359 120 2 7.0031 -3.59047 2.43929 6.97392 -3.42218 -3.54601
351 117 2 0.557729 -3.28441 0.846487 13.2363 7.48391 5.08593
420 140 2 0.80292 -6.60685 -0.239035 -0.288657 -8.85762 1.72855
338 113 2 6.83584 -0.589414 -1.81129 16.1261 -2.54101 -6.68024
337 113 1 6.95227 -1.48566 -2.30818 -18.6849 -1.91666 2.9813
257 86 2 3.80942 -0.912329 -0.529236 -3.63516 1.69595 7.94291
552 184 2 5.31168 -2.52363 0.327632 5.30985 -0.0732881 -11.4983
194 65 2 2.32701 -1.33398 0.568423 14.6911 -14.8749 -1.85015
608 203 2 4.68739 -6.12481 -0.116051 -8.51663 14.303 18.8297
607 203 1 4.15199 -5.56448 0.574024 8.92538 -23.7216 -11.7675
609 203 2 4.16102 -6.00107 1.5205 -3.49843 9.13135 -7.88784
193 65 1 2.19099 -2.28213 0.997258 -19.8427 -5.99264 15.5351
544 182 1 4.02579 -6.70381 3.04012 -8.74029 -3.34027 5.67052
373 125 1 2.02298 -5.82955 -1.10004 22.0543 -0.281718 1.07797
374 125 2 2.74574 -5.7523 -0.356802 -9.80422 -2.49928 2.37483
375 125 2 2.37511 -5.06132 -1.70232 -17.9996 6.71915 0.567149
418 140 1 0.178607 -7.26457 0.277093 -2.94783 12.2322 3.2896
256 86 1 3.06595 -0.222878 -0.290006 9.49051 -1.87537 -12.1032
252 84 2 5.31827 -2.62288 2.6255 -2.57234 6.53227 14.5522
358 120 1 6.51063 -3.30233 1.57957 9.42247 11.6115 -21.3192
506 169 2 1.36391 -1.20103 2.18835 15.7741 -5.48104 -1.11808
195 65 2 3.04723 -2.77686 1.26467 -2.00496 9.16652 -7.27722
505 169 1 1.01635 -0.393841 2.70751 -23.7955 -7.63914 -16.7269
20 7 2 1.91363 -6.80216 -2.7232 8.14972 4.77158 -21.0051
275 92 2 6.87263 -6.02959 3.07397 10.7093 -0.867511 -1.18505
274 92 1 6.65023 -6.95176 2.67434 8.89432 11.1041 -6.83999
276 92 2 5.65798 -6.82631 2.44523 -7.16737 -9.56542 6.1707
507 169 2 0.0586648 -0.363238 2.31983 6.49249 7.42662 17.6902
443 148 2 -0.0649443 5.49443 -3.18336 -5.25157 -0.114055 -10.5728
613 205 1 -5.59841 6.99354 1.53713 -21.788 8.19987 3.37209
240 80 2 -1.16998 0.727547 -2.87468 7.46827 -4.54645 -8.32337
239 80 2 -2.35804 0.276601 -1.98636 -7.36878 -8.47979 2.8549
309 103 2 -2.1526 5.92362 -1.15132 5.71115 2.5809 10.1909
307 103 1 -1.25677 5.95645 -1.66694 18.8779 -2.09716 1.37337
308 103 2 -0.474561 6.18676 -1.0116 -18.055 -0.692303 -2.136
110 37 2 -3.03706 2.70005 1.51377 -6.22838 -4.51168 -8.44099
111 37 2 -3.68195 2.45528 -0.0424303 -2.0894 -3.76419 -4.98653
157 53 1 -2.98288 5.90969 0.44596 3.81803 5.88059 -3.99172
158 53 2 -2.33834 6.05432 1.24927 -9.08508 -11.188 -6.99791
96 32 2 -4.16161 2.35204 -2.61575 15.1508 16.0866 0.247689
314 105 2 -5.78018 0.527227 1.51104 8.40616 -16.7292 3.61563
109 37 1 -3.74549 2.99922 0.828103 13.3256 13.4616 16.969
94 32 1 -3.97091 2.0036 -1.66444 -5.4074 -4.95287 -20.0004
95 32 2 -4.86713 1.52782 -1.66215 -11.2045 -13.0152 20.6118
409 137 1 -5.98182 4.31159 1.11794 0.0539116 1.44225 -0.198473
410 137 2 -4.99127 3.95525 1.09338 -17.0601 -5.41831 -1.15527
411 137 2 -6.00154 5.33883 1.18493 10.7705 2.49577 3.19062
568 190 1 -0.211646 1.31489 0.533925 -5.16527 9.58721 14.9896
590 197 2 -1.43997 4.30189 -2.00689 -6.619 -5.53773 5.15575
589 197 1 -1.56974 3.2863 -2.15394 11.2977 -2.43086 -8.36699
159 53 2 -3.62342 5.12207 0.564221 7.97013 0.589956 5.38183
249 83 2 -6.2644 3.75882 2.85467 4.14546 3.12578 -0.644319
134 45 2 -6.6148 0.672932 -0.381982 0.963785 -6.26149 -14.6121
135 45 2 -6.90706 2.00972 -1.28826 8.2063 2.40417 -9.02271
133 45 1 -6.67085 1.00348 -1.37224 -3.7878 -4.11085 25.6793
591 197 2 -2.34653 2.8639 -1.62645 0.177906 6.2759 -4.13693
614 205 2 -6.591 7.16737 1.76809 3.24486 -0.780609 -1.75
467 156 2 -6.28783 4.06389 -0.687396 -5.0813 -4.17141 -3.02666
466 156 1 -6.59932 3.6386 -1.57453 -0.320232 6.18389 8.17011
570 190 2 -0.60845 1.93342 1.28287 9.12925 -8.88093 -12.7603
253 85 1 -1.08459 2.91534 2.58148 -6.26182 8.47273 -3.0887
36 12 2 -1.59412 6.54617 3.16776 -8.82977 -7.77841 7.54722
34 12 1 -1.16147 5.89296 2.51744 15.4622 14.1315 -6.98648
35 12 2 -0.314683 6.34901 2.13488 -9.44889 -12.3388 -1.76814
400 134 1 -4.00769 0.254858 2.5719 3.32064 1.53567 0.302259
401 134 2 -3.00513 0.059214 2.72067 -8.31471 0.505817 -4.84657
255 85 2 -1.41143 3.89595 2.49276 7.32867 -8.60317 5.43078
606 202 2 1.52418 1.23253 -3.07247 -0.185811 6.32954 5.04357
604 202 1 2.34892 0.845373 -2.5927 -6.10436 -2.88375 -7.22774
260 87 2 7.2084 1.22788 -2.86474 6.0543 -1.81333 -3.07522
305 102 2 2.63465 5.0865 -3.23431 7.75966 -1.39249 -12.3724
304 102 1 3.16778 4.64666 -2.49321 -24.9982 15.3612 6.22117
445 149 1 5.67199 4.41202 -2.77323 26.1341 -9.17501 -6.19166
446 149 2 5.77934 3.40193 -3.00118 -3.72067 11.781 1.28592
447 149 2 4.66043 4.60503 -2.60084 -5.77792 -9.64149 1.41297
258 86 2 2.74808 0.157854 -1.20917 -5.0747 4.38133 2.63596
569 190 2 0.622298 0.850302 0.892632 -0.567843 2.76937 -2.2601
306 102 2 2.43467 4.39083 -1.81565 6.17435 -14.055 8.8568
468 156 2 7.20094 4.03879 -1.92021 -1.85003 4.51445 -0.72643
234 78 2 3.86293 2.42466 1.4223 3.10573 -3.97621 -6.40271
546 182 2 3.41848 7.17885 2.82628 0.382989 -6.18125 -4.37917
233 78 2 3.58643 1.24093 0.230161 -3.26675 -5.74131 -0.17037
232 78 1 3.68123 2.24675 0.430233 -3.40903 15.2164 7.61003
176 59 2 6.98927 0.985265 1.87451 -1.85448 1.94597 -7.85007
263 88 2 2.36489 3.06431 -0.180386 -9.41045 -0.611864 -9.07645
175 59 1 6.35914 1.36347 2.58768 8.69888 -10.2895 4.14332
512 171 2 3.56548 4.74873 2.16553 -3.23375 6.54273 4.14525
511 171 1 2.76257 5.40801 2.12329 1.05244 -9.95395 -15.5583
386 129 2 5.7194 4.48245 1.60315 5.15713 -3.94482 -2.15967
385 129 1 5.18572 3.87322 2.21161 -8.18205 3.37396 3.78643
387 129 2 5.61292 2.93359 2.28035 3.12403 -0.194614 2.50498
262 88 1 1.51641 3.49264 -0.621231 5.20026 0.441278 4.41653
264 88 2 0.800751 2.76116 -0.745544 5.31849 4.30413 4.07378
513 171 2 2.32871 5.27347 1.1908 3.73929 3.07087 15.8419
325 109 1 -5.44235 -1.65187 4.26286 4.78129 -19.1291 6.56562
326 109 2 -5.13804 -2.41393 3.63057 -0.80233 17.4459 -9.11943
327 109 2 -5.22174 -2.20758 5.10923 -4.0442 7.82013 3.50009
348 116 2 -4.28112 -6.62097 4.35713 -3.95667 7.36353 -10.7823
346 116 1 -4.33037 -6.19439 3.40992 0.525644 -8.95999 8.4136
62 21 2 -5.81429 -5.21531 3.55802 -1.57314 9.77307 12.7966
61 21 1 -6.63355 -4.57934 3.61608 -9.65634 -8.28766 -15.0618
92 31 2 -2.11836 -5.35094 6.27095 10.9443 4.80755 -2.03144
520 174 1 -4.96263 -1.87228 8.22251 0.906636 -0.110306 -13.2029
521 174 2 -4.90868 -2.54319 7.43355 -0.89868 5.87738 7.3407
63 21 2 -7.0744 -4.41407 4.56142 9.9901 -0.81325 -8.7309
166 56 1 -4.80875 -3.65819 5.96209 -2.92709 11.2662 13.9573
91 31 1 -2.26486 -4.34384 6.23541 -8.90348 -0.866171 11.2183
168 56 2 -3.87317 -3.97201 6.28486 2.70869 3.46547 -11.5044
93 31 2 -1.43563 -3.75527 6.0959 1.92993 -6.28525 -4.80384
522 174 2 -5.95059 -1.80392 8.49535 1.04001 -9.75237 0.76253
163 55 1 -4.69001 -6.95705 8.61158 5.98576 3.3807 7.90444
164 55 2 -5.70745 -6.97471 8.573 -8.49805 2.54429 0.0902844
167 56 2 -5.36713 -4.506 5.83221 2.38862 -4.90398 2.22656
366 122 2 -1.18426 -1.61137 4.13213 -8.4692 3.23292 -14.4992
365 122 2 -1.81711 -0.073523 4.09716 -9.62572 -9.26592 -3.7801
429 143 2 -5.91479 -6.95112 5.54927 4.95355 -15.4008 12.2372
534 178 2 -4.34987 -0.162448 7.9225 0.00972032 1.38622 5.60385
301 101 1 -0.223048 -2.92743 4.69776 -0.885528 -0.604591 4.48209
537 179 2 -0.264097 -6.68887 4.11409 0.499086 -4.93143 2.31903
364 122 1 -1.75731 -0.957983 3.54368 17.224 -5.57261 13.302
302 101 2 -0.202635 -3.90628 4.39925 -1.48958 -6.25506 -1.81407
428 143 2 -4.80086 -6.7621 6.94471 -12.9787 -6.63452 3.12246
165 55 2 -4.44409 -6.58608 9.54371 1.35386 -9.3078 -2.87686
408 136 2 -1.57815 -1.32093 9.76291 1.4444 -12.7801 -1.63601
406 136 1 -1.01605 -0.559992 9.36705 -14.2026 23.2062 18.2997
125 42 2 -6.89232 -0.862702 4.54295 0.0518186 -6.25775 7.26938
427 143 1 -5.25398 -6.38242 6.09574 3.691 16.7166 -22.3111
402 134 2 -4.44081 -0.245269 3.35225 -7.41054 -2.02753 -0.657463
560 187 2 -1.56579 -5.16655 9.29423 -8.20233 8.50252 -6.83636
559 187 1 -2.49255 -4.90585 9.6541 0.897468 -3.39323 6.40184
561 187 2 -3.13466 -4.42125 9.02275 10.6119 -1.37423 -7.53701
545 182 2 3.66518 -6.33569 3.93315 -2.73559 8.20437 -5.98029
250 84 1 4.94463 -2.12735 3.46597 -4.32243 -9.6778 -13.9123
251 84 2 5.66503 -1.46047 3.76284 6.45952 3.83581 4.61567
398 133 2 3.33013 -1.86533 4.22342 -8.07085 -5.74815 -10.6747
397 133 1 2.36209 -2.20989 4.35182 -4.59492 12.0143 4.42941
399 133 2 1.70659 -1.46685 4.02716 14.056 -4.51676 -0.972524
124 42 1 6.80889 -0.520775 4.58377 -12.7636 12.0183 -12.2381
355 119 1 2.15653 -3.45991 7.68334 4.32058 -8.00613 -7.22763
357 119 2 2.33359 -4.45357 7.49935 -5.13501 2.89524 9.40316
242 81 2 6.21789 -5.72437 8.93559 9.94923 -7.30355 1.7052
243 81 2 6.68526 -6.43824 7.55946 8.27096 -1.20469 2.66226
241 81 1 7.03795 -6.2284 8.50385 -0.093825 -6.90647 -14.7678
332 111 2 5.90568 -3.38706 5.9504 14.7954 1.88579 -2.82843
333 111 2 6.81178 -4.52576 6.67308 4.74822 6.01791 -12.679
331 111 1 6.6868 -4.0544 5.76401 -12.1086 -3.82744 23.8139
204 68 2 4.44649 -4.37549 9.56696 -2.88234 -13.0957 -6.03566
266 89 2 2.90156 -4.74681 5.96923 -1.09543 -3.60113 -3.38114
267 89 2 2.69167 -4.13593 4.47613 -5.06785 -1.60624 -0.505946
536 179 2 0.911907 -5.93255 5.03816 -0.304718 2.69862 -7.70579
535 179 1 0.156659 -5.80597 4.34949 -7.14445 5.65794 4.28284
265 89 1 2.71261 -5.02009 5.00338 16.1515 5.47534 2.28999
213 71 2 2.63392 -6.89513 6.83994 -16.3719 1.24479 21.0008
211 71 1 2.80765 -6.27389 7.65873 22.1127 9.7525 -11.0863
303 101 2 0.765515 -2.66214 4.81123 0.790254 -0.477673 0.320195
575 192 2 0.143891 -7.03937 9.33382 6.64428 -0.723046 -0.655188
356 119 2 2.65127 -3.21337 8.55518 -1.45624 2.10054 2.14835
203 68 2 4.18612 -5.94571 8.89201 -11.3893 7.34476 -3.50855
202 68 1 4.85738 -5.30008 9.30502 -0.401885 16.0159 12.3468
126 42 2 6.31572 -0.627811 5.4783 11.3905 -5.66411 1.97234
2 1 2 4.33718 -1.56018 6.97651 1.79166 9.64138 3.38415
1 1 1 4.95714 -2.14262 6.40384 -4.22118 -5.63775 -1.71661
3 1 2 4.49573 -2.2914 5.5075 0.772519 1.22504 -2.46089
101 34 2 2.97109 -0.170248 8.07147 0.6861 1.16673 -2.2592
459 153 2 6.23776 -2.31006 8.70613 -1.45585 -3.5281 -0.790366
457 153 1 7.13313 -2.75666 8.89485 3.67828 14.3204 -6.83884
458 153 2 7.11445 -3.3651 9.69712 -3.49116 -7.36833 5.83614
461 154 2 1.39244 -1.65107 7.78956 1.85438 0.720485 5.86493
212 71 2 2.27402 -6.47958 8.52831 -13.5138 -6.1525 -14.1696
574 192 1 1.10541 -6.77066 9.63272 7.47071 -8.28387 6.336
460 154 1 1.38862 -0.791159 8.35694 13.1791 -3.00905 -4.11732
371 124 2 5.41368 -6.2133 5.09625 4.43779 -0.742136 5.88664
370 124 1 5.89423 -6.76261 5.81244 -1.82171 -6.48261 1.10053
462 154 2 0.513259 -0.770801 8.90509 -5.7093 0.918643 -5.60099
248 83 2 -6.8437 2.91869 4.1417 0.236977 -0.243684 -0.566237
247 83 1 -6.23038 3.69507 3.88383 -16.3483 -5.60258 -4.36151
510 170 2 -3.8073 3.30366 5.93561 -7.99294 9.19509 -7.47454
254 85 2 -1.27726 2.5013 3.4959 -5.00401 2.17716 -1.0401
16 6 1 -1.27196 7.14224 8.59122 -15.6812 -11.0104 6.47279
17 6 2 -2.2368 7.1376 8.98187 17.6484 -2.5702 -10.0287
509 170 2 -4.81999 3.5539 4.51374 4.64503 -4.22148 7.71852
417 139 2 -4.2535 3.57665 7.99269 19.862 4.45903 1.56804
222 74 2 -7.11773 6.64897 3.67683 1.17249 7.24756 1.95012
220 74 1 -6.66829 6.33769 4.54939 -14.5938 1.181 3.7705
508 170 1 -3.87084 3.32996 4.90165 5.0666 10.7 7.36596
431 144 2 -0.226092 1.80829 7.2578 -2.56325 -5.96189 -0.805215
430 144 1 -1.21235 1.47927 7.24066 -2.73561 2.5817 13.9877
291 97 2 -3.0374 6.37645 5.82064 -2.2986 -3.27641 3.30389
532 178 1 -4.10671 0.814859 8.16084 5.7832 1.76878 -0.0299853
289 97 1 -2.98831 6.11797 4.84132 -2.57689 -18.0937 -7.63671
290 97 2 -3.30007 5.12533 4.7059 6.48411 21.8766 5.03651
384 128 2 -6.66791 4.18668 7.70507 -8.39383 -7.20368 -18.789