ITEM: TIMESTEP
31000
ITEM: NUMBER OF ATOMS
648
ITEM: BOX BOUNDS pp pp pp
-7.2334584712556254e+00 7.2334584712556254e+00
-7.2334584712556254e+00 7.2334584712556254e+00
-1.6074352158346134e+01 1.6074352158346134e+01
ITEM: ATOMS id mol type x y z fx fy fz
432 144 2 -3.56434 -4.83526 -13.209 4.10041 2.77861 1.94632
431 144 2 -3.77322 -6.31753 -12.5884 -6.31355 -5.71872 4.25035
324 108 2 -6.95244 -2.39476 -13.6786 10.1021 -0.0662424 1.11443
430 144 1 -4.16511 -5.36649 -12.5701 -3.28632 -1.43052 -1.05389
616 206 1 -5.91144 -2.91968 -12.5178 3.27358 -16.7963 10.1321
618 206 2 -5.15591 -2.35589 -12.0975 -9.72368 -7.41869 -3.37267
392 131 2 -4.03608 -2.08128 -15.5577 6.27978 -14.8309 -8.40853
221 74 2 -7.02278 -3.9435 -15.6818 7.90398 -15.7928 -8.8412
83 28 2 -3.15134 -4.74757 -10.5461 -3.66938 -29.0631 -36.2922
82 28 1 -3.17651 -4.12566 -9.79204 8.46683 33.795 33.3186
487 163 1 -1.95194 -4.12898 -13.6745 11.7117 20.9954 -0.897383
391 131 1 -3.40106 -2.90063 -15.7642 -0.340782 12.9065 29.666
393 131 2 -2.97716 -3.24387 -14.8817 -5.28736 1.65877 -9.26388
522 174 2 -0.246654 -6.99059 -14.6455 4.34885 1.59583 -11.3278
617 206 2 -5.74548 -3.9422 -12.3867 7.03329 21.1641 -2.65193
570 190 2 -6.34191 -6.50355 -11.9327 5.68605 -3.17668 -5.73086
471 157 2 -1.34744 -6.52729 -11.0867 0.013633 13.0353 -6.37741
469 157 1 -0.851289 -5.86063 -11.7405 0.492889 0.621292 -2.17368
489 163 2 -1.31861 -3.41113 -14.1055 -8.44211 -15.7136 -2.15237
58 20 1 -1.89467 -0.97408 -9.89378 1.01392 -8.22707 -8.98311
176 59 2 -6.00058 -0.246124 -11.9721 -8.66101 -0.400406 -5.39702
175 59 1 -7.00518 -0.0555707 -12.1765 30.9822 3.08098 -22.126
267 89 2 -2.32053 -0.486975 -12.8313 -5.35674 -1.33673 -11.7612
339 113 2 -5.67716 -0.0749476 -15.4308 1.61482 -4.61137 -2.13247
337 113 1 -5.3053 -1.02395 -15.529 -1.03618 2.45642 1.4199
338 113 2 -6.1003 -1.66041 -15.3044 3.66985 7.68309 1.47067
84 28 2 -3.26763 -3.15337 -10.0849 -0.555591 -4.25957 2.42682
610 204 1 -4.71739 -0.526974 -10.9376 45.9867 -13.6792 -4.00601
612 204 2 -5.09479 -0.29068 -10.0238 -3.93066 -0.126283 14.1135
611 204 2 -3.69711 -0.790334 -10.8088 -36.6103 11.0715 -0.807662
488 163 2 -1.35848 -4.60621 -12.9799 -9.31444 -10.1183 3.66304
263 88 2 -0.432337 -4.87092 -15.1833 -4.79923 2.09996 -4.60198
130 44 1 -0.137887 -2.83987 -15.0748 9.87808 12.2439 7.80704
262 88 1 -0.00459563 -5.73746 -15.5184 43.1083 19.556 0.896128
322 108 1 7.0693 -2.22862 -14.5948 -8.1405 -16.2276 -9.40783
323 108 2 6.18412 -1.72045 -14.4833 -0.0278224 7.36411 1.51232
394 132 1 0.415255 -0.596229 -13.734 7.25239 -3.39073 31.6034
396 132 2 0.493522 -0.79779 -12.7278 -5.06976 2.25127 -14.8744
459 153 2 6.45441 -2.56449 -12.1396 11.7163 -0.795537 1.27445
9 3 2 3.92678 -0.902767 -12.3947 -0.547697 6.58081 -13.6401
334 112 1 3.15317 -4.77228 -10.4992 -8.40784 -0.190587 6.90482
7 3 1 3.60134 -0.773395 -11.4431 -13.0387 37.7066 17.9968
335 112 2 3.44458 -4.04422 -11.133 3.62029 4.99712 -6.39181
457 153 1 5.81202 -2.49471 -11.3568 -18.9061 -3.85004 -9.20109
90 30 2 3.16155 -1.39698 -9.80425 -2.30617 -5.28668 6.50267
637 213 1 6.01266 -6.7744 -14.3201 -14.7758 31.8254 -51.1072
470 157 2 0.121887 -5.84841 -11.4609 3.61697 -2.23724 -0.493033
639 213 2 6.34303 -6.01528 -14.9772 -5.83751 -28.0984 15.296
638 213 2 6.25304 -6.51753 -13.3793 13.0482 5.34258 29.049
456 152 2 4.45298 -2.21087 -14.1154 -4.71321 -0.775925 11.2803
454 152 1 4.5953 -1.2106 -14.3281 -0.219094 -22.564 5.00953
568 190 1 7.1046 -6.55052 -11.9361 2.92357 19.1164 29.7202
458 153 2 4.91815 -2.14064 -11.7443 12.9329 -4.24371 13.6127
356 119 2 3.14043 -4.13935 -14.0112 0.146604 11.4505 -3.7354
357 119 2 4.34925 -4.66948 -13.1805 9.58824 3.37321 5.66415
355 119 1 3.94857 -3.78558 -13.4881 -8.67499 -13.015 -3.74684
569 190 2 6.83821 -6.04417 -11.0641 -3.65978 -15.0746 -17.6334
455 152 2 4.48482 -1.2539 -15.3596 -4.0235 17.3267 -7.3349
177 59 2 7.08187 -0.249747 -11.2803 -26.737 -3.15603 26.5168
120 40 2 2.58761 -6.45304 -10.4282 7.04611 7.39349 5.04168
246 82 2 3.35138 -0.0759989 -14.312 22.652 -22.7883 -4.75106
381 127 2 6.43873 -3.36959 -9.89302 -12.0303 -1.20078 8.99211
524 175 2 6.021 -1.32285 -9.88939 -6.65649 -8.52463 -3.98556
523 175 1 6.09913 -0.324187 -9.70234 15.3561 20.3928 4.92776
607 203 1 2.99156 -5.50039 -15.7831 -5.44904 23.4702 8.6657
609 203 2 3.26331 -6.08587 -14.9959 -5.52018 -20.8855 2.55455
264 88 2 1.03627 -5.53175 -15.5211 -31.6171 -13.9555 -8.46965
131 44 2 0.336552 -2.56149 -15.9545 -5.64997 -6.67414 2.14901
132 44 2 0.0234481 -2.05133 -14.4063 0.896053 -0.172292 -13.7439
477 159 2 -3.38853 5.62232 -11.9311 -8.93494 6.22415 5.18301
476 159 2 -3.07177 5.87298 -13.4873 6.11857 -3.44764 -18.809
475 159 1 -3.50003 6.30235 -12.6901 1.92296 5.98669 3.39358
520 174 1 -0.480765 6.65631 -14.0662 -11.3093 -7.70915 17.0346
521 174 2 -1.13767 7.03887 -13.3782 7.20443 -6.38233 -0.817428
384 128 2 -4.3337 5.23497 -10.3408 -7.75473 7.15727 6.33927
382 128 1 -5.10902 5.89371 -10.0869 11.8526 -9.3641 -16.2123
266 89 2 -2.56203 1.09122 -12.902 -6.8525 2.87409 -5.66975
480 160 2 -6.34321 6.1482 -14.2722 11.1223 -1.62572 -7.69256
478 160 1 -7.06716 5.48834 -14.0149 4.60723 -15.9196 3.84453
265 89 1 -2.80462 0.225266 -13.3808 12.2019 -5.0246 19.3641
169 57 1 -2.54079 3.63531 -14.4632 -5.41219 -13.4026 -15.1222
171 57 2 -3.10312 3.3341 -13.6914 -6.20837 -3.01741 16.2443
165 55 2 -3.32885 4.48441 -15.6355 2.0011 7.73215 -1.71099
170 57 2 -2.71263 2.94238 -15.2244 9.99771 6.36746 11.9625
648 216 2 -4.62972 1.4958 -11.3306 0.00500627 -10.3943 9.05612
647 216 2 -4.81472 2.05246 -12.8386 -3.39094 2.79183 -0.682307
646 216 1 -4.29063 2.20462 -11.9672 -0.518492 3.20441 -13.8739
645 215 2 -3.54191 3.357 -11.1954 1.58457 7.21514 -1.50543
139 47 1 -6.3051 1.75377 -14.0454 51.7879 -4.73898 -12.2155
643 215 1 -3.17674 4.29034 -10.8942 -17.6558 0.588057 6.93059
619 207 1 -0.333846 3.93667 -11.3867 -5.19571 5.52337 -1.9828
620 207 2 -0.143924 3.06345 -10.9207 3.63989 -9.02062 4.61192
626 209 2 -6.50439 5.25687 -10.8291 -6.68298 -1.66789 15.8109
99 33 2 -0.132925 4.89942 -9.97134 2.35699 -8.2149 -19.8742
141 47 2 -6.91944 2.52289 -14.295 -19.0034 -5.76118 6.71969
140 47 2 -6.52183 0.940572 -13.4463 -29.0126 9.76979 5.04409
249 83 2 -1.26731 6.50928 -9.67686 -6.69966 9.5756 -2.22173
247 83 1 -2.02988 7.15053 -9.99757 -5.77184 -27.9495 23.7051
644 215 2 -2.30982 4.50616 -11.3548 27.6577 -7.45322 -2.64604
205 69 1 -3.38554 1.19615 -15.8343 31.5484 17.3247 -3.02576
206 69 2 -3.46091 0.741549 -14.9303 2.62163 -14.2502 14.267
307 103 1 0.848729 4.13288 -13.9798 -3.97837 -14.2046 -3.42934
308 103 2 0.447165 5.06174 -14.1668 -4.707 3.13023 1.67811
395 132 2 1.20109 0.063649 -13.91 -2.33066 -3.36489 -12.0415
8 3 2 3.35182 0.252947 -11.3063 6.88628 -34.8875 -10.7046
309 103 2 0.632356 3.48767 -14.7548 2.31601 10.9712 10.8436
479 160 2 6.63751 6.10692 -13.7423 -7.57219 2.93188 -8.1217
627 209 2 6.92359 6.0679 -11.5879 -9.95905 -3.50787 8.9482
363 121 2 3.91806 2.59023 -11.3756 -2.69729 3.75582 -7.89782
146 49 2 5.62885 2.44011 -10.8071 6.88938 -2.94871 4.04214
199 67 1 3.17257 6.85091 -14.0902 -18.8214 11.5209 -21.156
35 12 2 5.61417 3.33288 -15.3004 2.53041 -11.7568 3.7088
34 12 1 6.51072 3.38744 -15.8157 25.074 41.7096 20.511
36 12 2 7.01112 4.25104 -15.4666 -11.508 -24.4882 -2.94837
241 81 1 3.97283 5.91986 -11.8189 0.0680145 -8.53667 31.9868
243 81 2 4.92282 5.64499 -11.6046 1.96767 -1.9425 3.04437
242 81 2 3.48814 6.18125 -10.9258 3.23514 0.421559 -20.2182
625 209 1 6.92276 5.30205 -10.8875 12.0749 5.31181 -27.9876
118 40 1 2.27667 7.09796 -10.0874 -11.0491 -8.17795 6.10254
245 82 2 3.16435 1.48387 -14.6186 13.5716 22.7679 -6.88765
244 82 1 2.70028 0.679251 -14.241 -45.621 1.73503 14.6911
145 49 1 5.62597 3.00092 -11.6522 -3.0531 3.84281 8.19693
98 33 2 0.845971 6.28323 -9.67455 0.479831 -11.1202 -2.59379
200 67 2 4.17453 6.66791 -14.149 2.00443 -1.16478 5.52874
147 49 2 6.25282 3.79823 -11.4428 -3.44011 1.14428 -3.99116
201 67 2 2.76994 6.40347 -13.2524 14.7521 0.0847589 -0.796333
438 146 2 5.41796 1.65139 -14.4067 -25.6971 28.4049 15.8347
436 146 1 4.73001 2.41298 -14.1412 19.329 -22.7138 -19.5973
437 146 2 4.85889 2.77014 -13.1853 11.3857 -3.69027 3.44472
533 178 2 6.12154 6.30466 -9.80583 -6.26634 0.154489 -0.581524
362 121 2 2.5089 2.30005 -12.2946 19.5518 -4.53855 25.7526
361 121 1 3.01273 2.09915 -11.3893 -16.2421 -2.5909 -20.8231
621 207 2 0.185261 3.98073 -12.274 0.571921 3.19683 -6.38521
525 175 2 5.21601 0.173274 -9.74286 -5.32117 -7.59628 1.141
285 95 2 2.12129 2.20852 -9.97713 -1.34495 7.46444 3.53226
551 184 2 2.30277 5.93907 -15.586 -6.99655 -3.95435 5.85582
60 20 2 -0.938106 -0.812146 -9.52741 -1.17309 -0.514295 -3.72066
350 117 2 -2.72222 -3.48426 -6.43038 -1.43312 -17.0561 4.16842
306 102 2 -1.39525 -3.33665 -3.99807 2.27453 -6.72552 -0.742344
305 102 2 -2.86078 -3.70401 -4.69713 2.10917 4.18836 9.03478
304 102 1 -2.4044 -3.29513 -3.84397 0.540117 4.49669 16.5347
376 126 1 -0.593342 -4.48195 -8.55429 17.945 4.36429 -7.4474
370 124 1 -6.13677 -4.99815 -4.67809 13.9359 14.4824 -15.9444
378 126 2 -1.36854 -4.27991 -9.19712 -7.24587 -3.10845 6.26581
180 60 2 -5.49115 -2.08659 -7.01058 -2.05668 9.55858 -15.2132
179 60 2 -4.03904 -2.67706 -7.22027 -1.37811 -3.98121 -8.14213
178 60 1 -4.62424 -1.90878 -7.54197 -3.91508 -9.7609 19.9591
349 117 1 -3.332 -4.22721 -6.01405 1.03441 3.1207 -16.4532
556 186 1 -2.73853 -6.76234 -7.05855 3.52878 -10.4157 5.52275
558 186 2 -2.23985 -6.6238 -7.94597 -6.08947 -2.64728 0.576478
87 29 2 -7.04522 -0.650985 -6.081 -1.70471 12.7287 -0.0656616
412 138 1 -1.92484 -1.95783 -6.73782 1.33147 -8.15285 -29.735
371 124 2 -5.33429 -4.45937 -5.06735 -15.552 -15.1669 6.22933
413 138 2 -2.75178 -1.53515 -7.17893 -9.21713 -1.18582 3.9213
414 138 2 -1.19725 -1.61331 -7.36445 8.53186 -7.18999 2.71554
555 185 2 -0.109618 -5.33792 -6.94684 -4.19321 6.91887 -13.0495
553 185 1 -0.202075 -6.07958 -6.25805 -18.1737 -9.60285 14.5273
554 185 2 -1.20747 -6.39167 -6.2786 24.3967 4.13038 -1.75671
59 20 2 -2.37374 -0.142371 -9.48895 -7.5547 0.0814579 1.5701
37 13 1 -2.08068 -0.0720758 -5.11325 0.511558 42.0225 28.3971
38 13 2 -1.93287 -0.933265 -5.6696 0.499153 -4.31006 2.27954
351 117 2 -3.12628 -5.17533 -6.39844 -3.13333 7.90478 -1.86567
372 124 2 -5.99425 -5.1787 -3.69445 -0.956692 -0.538035 9.05996
336 112 2 3.22915 -4.44792 -9.52817 3.20495 -6.52888 0.0929982
88 30 1 2.76612 -1.70921 -8.89836 -9.09672 15.36 -18.0821
89 30 2 3.15059 -2.60458 -8.59447 6.72632 -2.14017 4.64119
534 178 2 6.54533 -7.0403 -8.75277 3.94578 8.05168 15.7503
209 70 2 6.54462 -2.93304 -7.17289 6.03422 1.68716 -17.0696
598 200 1 0.0910134 -4.63735 -3.77996 -2.36588 10.1743 -5.81216
122 41 2 1.13679 -0.696018 -8.86266 10.9993 -6.93891 1.3079
121 41 1 0.325847 -0.0787486 -8.8566 2.17439 0.0922441 3.21547
600 200 2 0.229067 -5.37406 -4.50309 -2.94525 1.00539 17.6692
377 126 2 0.296608 -4.31541 -9.03644 -11.2862 -2.59266 6.29782
208 70 1 7.05637 -2.27187 -6.58776 4.7512 1.49221 13.783
210 70 2 6.9026 -2.62112 -5.64573 -1.65518 0.841667 11.1505
153 51 2 7.12777 -6.16098 -5.29963 1.53773 0.821875 -1.78866
151 51 1 6.6132 -6.90855 -5.79149 20.0356 -1.21127 -7.83746
152 51 2 5.60773 -6.88704 -5.572 -6.686 0.383172 6.71442
634 212 1 4.22628 -7.11707 -4.81882 -12.4131 19.372 -8.39912
33 11 2 4.01332 -4.76571 -7.12668 -11.3465 18.386 -14.1471
636 212 2 4.11244 -6.47531 -4.02766 -7.72999 -3.21545 5.0257
379 127 1 6.28388 -3.62574 -8.90208 35.2159 3.15806 -7.16272
380 127 2 5.34002 -3.76739 -8.63261 -31.0131 -5.66192 1.25517
198 66 2 0.892995 -3.51322 -5.33372 -20.6251 -13.8714 2.89123
196 66 1 1.73917 -3.09562 -5.66369 15.5829 13.0008 -3.23004
197 66 2 2.16874 -2.79861 -4.76863 10.1062 2.71658 -4.03138
32 11 2 2.83455 -3.58865 -7.18531 -15.8916 5.61044 21.5165
31 11 1 3.60567 -3.99155 -7.69923 25.2677 -26.4358 -7.35128
623 208 2 1.30916 -6.90942 -6.78753 -16.1073 -1.82198 -1.34639
624 208 2 2.88829 -7.01892 -6.54824 -0.985937 -10.9445 -9.84382
622 208 1 2.16428 -7.2034 -7.25625 17.8899 13.2643 9.11859
258 86 2 2.12192 -1.23608 -6.06911 -6.41792 -4.18367 -6.74311
256 86 1 2.11263 -0.214217 -6.12599 10.7671 18.2559 15.8067
450 150 2 4.74912 -2.6311 -3.80997 -6.15525 -4.76572 2.48185
490 164 1 2.99483 -2.19613 -3.45565 1.97519 -2.84758 -9.43842
448 150 1 5.7497 -2.83597 -3.86613 5.47145 5.04791 -20.7598
449 150 2 6.0007 -3.80421 -3.63004 -4.60092 -1.95665 10.7231
383 128 2 -5.26507 5.86641 -9.09079 -1.29114 0.937209 21.8328
318 106 2 -7.0069 2.78429 -8.59953 10.7682 -29.6833 12.733
10 4 1 -6.18926 5.79661 -7.18041 4.1835 -5.15182 -48.4612
12 4 2 -6.58148 6.63327 -6.7687 -8.48801 5.58618 22.8467
39 13 2 -1.43511 0.0343795 -4.32238 -0.527806 -11.7301 -4.54005
30 10 2 -5.26675 0.622747 -5.31349 2.90971 4.83408 19.8382
85 29 1 -6.96641 0.385756 -5.97646 -1.75086 -24.9537 -9.62176
133 45 1 -3.0666 1.04893 -8.88304 -28.982 -15.6575 -6.31893
248 83 2 -2.90627 6.75632 -9.60949 9.30784 8.60446 -9.63937
79 27 1 -6.16382 0.750417 -8.53806 -15.1124 -12.5043 8.69501
11 4 2 -5.82252 5.0529 -6.58235 0.89537 -0.309538 15.6652
473 158 2 -0.00312938 4.23642 -4.43189 21.5899 10.8666 -6.68226
135 45 2 -4.07704 1.05298 -8.59173 27.2866 13.8761 -1.20754
134 45 2 -2.4868 1.89812 -8.82609 -10.1977 8.21211 14.8318
557 186 2 -3.00193 6.69885 -6.93871 3.12227 14.0394 -8.35435
365 122 2 -5.2457 4.54803 -4.80525 7.38551 3.36458 -1.57824
366 122 2 -4.69471 3.04435 -5.21288 -8.25972 12.8452 -8.5737
364 122 1 -5.05391 3.93293 -5.61161 6.84343 -18.8989 8.85453
298 100 1 -5.03989 5.42607 -3.31446 1.27684 9.20348 -17.2854
369 123 2 -3.85582 4.34406 -6.9397 4.15814 22.706 -3.49257
368 123 2 -2.56792 4.13177 -7.81782 17.436 -1.29962 -14.4917
367 123 1 -3.18939 4.8818 -7.53739 -26.9861 -6.00852 16.771
561 187 2 -1.62685 3.21979 -6.93455 11.6621 -11.1042 1.32032
559 187 1 -1.38799 2.96343 -7.91998 4.20414 0.873098 -11.5116
560 187 2 -0.41567 2.65956 -8.05613 -6.87328 4.47365 6.93678
81 27 2 -7.02485 0.378053 -8.98653 7.60854 3.60709 -4.58762
80 27 2 -6.39504 0.472744 -7.55228 13.4478 14.5238 -10.1369
28 10 1 -4.78112 0.926493 -4.43919 -18.5791 6.07727 -11.9947
29 10 2 -3.78369 0.817658 -4.49624 17.4051 -11.5604 -6.54919
418 140 1 -1.94861 3.06477 -5.34426 2.80464 -14.4608 -6.22104
420 140 2 -1.83983 2.04807 -5.19312 -4.24643 11.9886 1.38924
419 140 2 -1.88199 3.61078 -4.48129 -0.744948 -2.39313 10.3096
279 93 2 -5.79923 1.64147 -3.26717 3.69421 10.6165 4.32457
532 178 1 5.76069 7.12471 -9.29983 2.1491 -4.3416 -9.27719
119 40 2 2.34379 7.0421 -9.05495 4.53568 5.71904 2.34119
123 41 2 0.66176 0.888609 -9.02943 1.57027 -1.08719 1.82215
86 29 2 6.55549 0.723151 -5.77381 -4.08306 7.36032 2.08749
257 86 2 1.44993 0.189839 -6.78315 -2.72045 -9.50428 -4.11024
472 158 1 0.942104 4.45414 -4.82253 -22.7581 -19.4689 8.61738
117 39 2 6.15861 5.80963 -4.98457 2.91524 6.37183 3.12596
474 158 2 1.62593 3.9993 -4.21933 1.58841 6.53609 -1.92629
97 33 1 0.131882 5.62253 -9.30861 -4.51497 17.2223 18.5111
116 39 2 5.26547 4.65158 -5.60682 -8.25569 -8.35381 -1.38509
115 39 1 5.66097 4.96111 -4.70751 11.8878 14.9113 -24.3172
284 95 2 1.67284 3.11215 -8.57816 4.24633 7.06426 5.46217
317 106 2 6.99727 4.139 -8.97704 -11.3183 23.8258 -1.37423
316 106 1 6.599 3.29089 -8.61277 -6.01959 1.8445 -11.5775
538 180 1 4.75467 1.45359 -5.68017 -20.2086 -25.137 -1.80459
283 95 1 1.45407 2.30514 -9.18601 -8.72092 -25.3 -20.2928
15 5 2 3.38401 3.90793 -7.22638 -23.8434 12.9202 3.35811
539 180 2 3.89779 0.897554 -5.90528 21.4158 11.9951 5.10741
540 180 2 4.69411 2.37612 -6.10938 -0.498103 9.86871 -1.55459
68 23 2 1.25004 4.23824 -6.51658 19.5027 2.40648 -7.28829
67 23 1 1.64216 4.18243 -7.48954 -20.0616 -1.16897 31.0831
69 23 2 0.902211 4.69207 -7.98647 5.01557 12.9144 -12.4481
13 5 1 4.34446 3.947 -6.90968 8.44126 -12.0775 5.77832
14 5 2 4.868 3.60637 -7.70706 21.7627 2.71501 -6.77664
531 177 2 2.2135 0.664114 -4.29683 -0.876813 1.13239 3.14918
635 212 2 3.95311 6.40404 -4.56414 0.131618 -5.87686 6.58087
529 177 1 2.38195 0.901854 -3.30876 -29.8828 2.38984 -21.3199
333 111 2 5.10006 2.59487 -3.40491 -11.6444 -13.0969 -5.91812
332 111 2 5.84648 4.00341 -3.62903 -8.77804 -0.214482 2.55206
20 7 2 -0.711249 -1.4024 -1.85505 -10.6456 -2.88061 5.72687
19 7 1 -1.09075 -2.2099 -1.31742 9.71881 17.5408 -17.7395
21 7 2 -1.55959 -2.82494 -1.98134 -3.93411 -1.08643 3.70192
260 87 2 -2.75313 -5.19337 -2.41993 -9.59248 1.05551 -5.56622
259 87 1 -3.02549 -5.80964 -1.65145 1.30606 -7.03924 -4.29546
261 87 2 -3.98011 -6.22143 -1.72915 1.93465 5.82096 -2.67393
354 118 2 -4.13953 -2.2575 -1.17336 12.4267 13.6491 -22.6002
94 32 1 -3.30106 -6.95945 3.10134 -5.8944 -6.13783 -13.1344
548 183 2 -4.38022 -4.17988 0.0968483 -3.31017 7.8405 3.5579
549 183 2 -4.45699 -2.49056 0.483896 -1.25298 -5.82364 8.12568
92 31 2 -4.68889 -6.27835 2.01169 -16.8367 -5.34219 -5.76356
353 118 2 -3.31365 -1.99026 -2.5974 -0.81773 -0.218298 -6.48916
547 183 1 -3.97336 -3.2477 -0.00909822 -4.07665 -5.91982 -0.198749
352 118 1 -3.99659 -1.56567 -1.9685 -13.9337 -12.6331 15.6507
311 104 2 -1.89669 -4.24142 0.755084 7.56866 -1.00659 -0.296811
312 104 2 -2.23023 -5.2731 -0.511392 37.9391 6.49087 26.6885
310 104 1 -1.45209 -4.9756 0.182551 -31.7425 0.295997 -16.1049
373 125 1 -5.46756 -6.87088 -1.46005 5.14494 -4.58057 -9.49264
375 125 2 -6.41054 -7.14955 -1.72948 -11.8274 0.788275 -12.0404
485 162 2 -1.17022 -2.59608 2.98598 13.5897 19.6909 3.15669
484 162 1 -1.8741 -3.20032 2.61592 -21.1588 -27.2266 -0.984419
93 31 2 -6.20688 -5.79392 1.3228 0.554751 11.173 4.12873
91 31 1 -5.49715 -6.52785 1.3952 22.2309 3.82403 -3.98563
232 78 1 -6.94179 -1.38816 -2.66473 -3.83457 46.0968 26.4353
274 92 1 -0.659146 -0.337472 1.13175 1.56474 -6.85453 13.544
275 92 2 -0.498358 -1.00818 0.361906 -7.75761 3.06522 14.0373
276 92 2 -0.767256 -0.764991 2.08084 3.56553 3.13402 -19.5311
302 101 2 -0.0273735 -5.37324 1.85849 -1.17168 -6.3603 -4.8872
4 2 1 -6.72376 -1.35828 0.644056 3.03238 -23.2743 5.46267
6 2 2 -6.08496 -0.977678 1.37389 -12.3254 11.7994 -18.3789
51 17 2 -6.66636 -3.09317 0.84852 -19.5622 1.40802 -5.8948
49 17 1 -7.02415 -4.04136 1.05283 -16.097 -15.576 6.72112
374 125 2 -5.55832 -6.69654 -0.470619 4.98958 4.18447 22.5529
233 78 2 -5.92151 -1.49803 -2.59412 -7.90113 -17.0403 -13.2192
341 114 2 -4.16972 -0.22568 -1.0383 10.0533 5.81175 0.270956
462 154 2 -4.41198 -0.0394745 0.918915 14.7972 -15.6376 7.10041
460 154 1 -4.35884 -0.798156 1.64541 -0.785323 10.3312 4.2216
461 154 2 -3.40356 -1.08818 1.8836 -1.84735 4.9938 -6.92063
576 192 2 -6.16728 -2.21709 2.84628 -0.878801 -1.45701 -11.7345
501 167 2 1.17856 -6.13061 -0.87566 5.79539 -10.905 3.74493
599 200 2 0.22318 -4.88232 -2.77305 5.60361 -9.45611 -18.6266
499 167 1 0.857773 -5.23855 -1.2343 -7.85359 13.9176 -6.87638
500 167 2 0.0162724 -4.96449 -0.706202 -11.5289 -7.6645 8.6381
303 101 2 1.22825 -5.52305 2.89684 -0.247809 4.75622 1.64741
234 78 2 6.83514 -1.96816 -3.1718 16.6144 -19.0485 -7.40968
235 79 1 3.24433 -5.50067 -2.47574 36.8415 -5.42779 -0.917274
236 79 2 3.76657 -5.91537 -1.67189 -30.2805 9.25663 -16.3819
301 101 1 0.791285 -5.94929 2.07224 -0.196612 -4.04463 -5.33522
491 164 2 3.0908 -1.23846 -3.10422 0.762645 -5.16608 6.49166
492 164 2 2.86709 -2.87873 -2.70789 -1.54342 4.74786 7.94733
280 94 1 6.2686 -4.96056 -2.19152 -29.8539 -25.7079 13.5584
282 94 2 5.54223 -4.73631 -1.48195 23.3053 2.83666 -17.1478
281 94 2 6.16266 -5.98104 -2.39281 12.0041 16.1106 1.75404
268 90 1 2.8743 -3.23583 1.55627 9.06713 -12.5194 28.8563
269 90 2 2.24742 -3.58623 2.33998 4.6416 14.6169 -32.8195
255 85 2 3.98415 -4.41894 1.54769 20.9234 -8.27869 -8.7949
270 90 2 2.51745 -2.97268 0.623197 -18.9645 -0.030693 6.5253
253 85 1 4.86481 -4.96375 1.32833 -1.58889 24.741 12.0337
18 6 2 0.724802 -2.04093 -1.07978 -15.629 4.3405 -3.1835
17 6 2 1.13706 -3.60166 -0.706814 5.40106 10.1117 -5.81887
16 6 1 1.47327 -2.6213 -0.743185 27.8885 -19.6015 10.6472
5 2 2 6.98433 -0.819934 0.21357 6.28354 6.11187 11.0936
182 61 2 3.79251 -0.647891 1.18391 13.8843 2.79706 -17.6271
446 149 2 1.65384 -0.395569 2.76595 -7.84482 -2.54861 -0.628603
181 61 1 4.57894 -1.12749 0.698585 -23.3137 -10.5777 41.7174
183 61 2 4.54125 -1.99326 1.2874 7.53401 15.7787 -26.9488
498 166 2 4.79493 -0.122835 -1.29983 -5.96932 -5.0487 20.9256
237 79 2 2.2875 -5.17832 -2.30376 -1.43507 -8.24091 14.2914
254 85 2 4.61069 -5.81831 0.859704 -12.909 -14.309 -2.64383
398 133 2 1.99947 -6.66065 0.985554 10.1188 12.5762 4.32834
397 133 1 2.89729 -6.81809 0.48704 -8.08788 2.11779 5.75968
497 166 2 5.66483 -0.274528 -2.65113 -14.2501 4.93026 2.35138
50 17 2 6.383 -4.13954 1.027 34.9282 5.73458 0.823718
62 21 2 6.21427 -5.71556 2.89774 4.20346 -19.9329 6.56315
63 21 2 7.16742 -7.03763 2.53219 -11.9449 -7.15131 3.56908
504 168 2 -0.726116 0.854818 -2.18551 12.4204 -7.28718 2.265
502 168 1 -0.116292 0.109819 -2.5808 -10.2468 3.96901 0.211251
299 100 2 -4.79834 6.15021 -2.63559 -3.5976 -1.60399 5.30355
300 100 2 -5.52996 4.62601 -2.95975 -2.75054 -14.7435 16.1163
330 110 2 -1.31608 3.17307 -2.18779 -9.40594 4.63767 22.5437
96 32 2 -2.71586 6.78512 2.62812 -3.83109 20.7508 20.8117
565 189 1 -1.46444 2.19749 1.86099 23.5021 4.47235 -25.5728
566 189 2 -0.970717 1.25608 1.7818 -30.3159 22.4136 8.81686
592 198 1 -6.23927 3.73153 0.165976 10.7148 -10.1896 -21.0174
594 198 2 -7.22914 3.42993 0.237343 1.07721 4.85988 -3.36291
593 198 2 -5.90646 3.30926 -0.723545 -3.38049 7.35837 15.0114
158 53 2 -2.65846 1.39487 -0.921051 28.0937 19.632 -6.72209
287 96 2 -1.94099 7.12913 -1.80485 -9.53692 12.8597 -6.44831
150 50 2 -4.95413 4.65833 0.848463 -21.0695 5.02181 -9.06141
286 96 1 -1.41453 6.31555 -1.51701 8.74097 0.375582 19.9619
288 96 2 -1.41978 6.36905 -0.484864 2.47181 -7.6079 -5.30453
149 50 2 -4.34304 6.32043 1.20326 -21.1157 -10.6304 -8.80627
340 114 1 -4.15597 0.713332 -0.575238 -12.707 -8.39616 -10.2913
342 114 2 -4.87964 1.20074 -1.11012 1.79477 7.64607 0.850704
567 189 2 -2.26435 2.3946 2.47019 1.59343 -27.0938 6.42783
329 110 2 -1.41925 4.95239 -2.43089 0.871466 -12.8891 16.8268
328 110 1 -1.23467 3.99285 -2.79394 9.29085 3.75741 -43.9725
535 179 1 -1.23796 5.50029 1.42306 -7.00208 3.82972 2.56873
159 53 2 -1.6327 2.22866 0.00957892 6.87362 -3.77082 -14.3586
278 93 2 -7.06362 2.48346 -2.53011 -3.82735 1.78101 -6.90784
277 93 1 -6.04588 2.37086 -2.55809 0.732547 -3.65943 9.15883
536 179 2 -1.5466 4.64722 0.981063 -1.77445 -7.48929 -5.28678
148 50 1 -4.27172 5.29442 1.26095 32.4405 8.88958 13.5455
545 182 2 -4.32182 1.66547 2.51568 -2.35091 10.1827 -3.63371
537 179 2 -1.555 5.45469 2.39952 9.38182 0.303352 -3.23134
157 53 1 -1.76565 1.97662 -0.99302 -31.2908 -19.405 19.3805
563 188 2 -3.84651 5.15213 2.99232 -3.53769 -7.36263 -8.87051
428 143 2 -7.20687 6.01305 0.453299 2.8233 18.837 -2.15469
503 168 2 0.864083 0.43649 -2.71665 -8.63892 0.503441 1.62114
229 77 1 1.47063 6.02133 -1.46676 -17.9754 20.1581 11.3189
231 77 2 1.66301 5.03363 -1.58164 -3.91266 -7.28059 -5.13757
168 56 2 0.294334 6.4214 2.94883 -6.95453 2.39281 5.1304
445 149 1 2.53648 0.092069 2.71046 5.65839 1.59849 -20.546
506 169 2 7.12036 5.87159 -2.64398 -6.31963 23.4028 0.961193
507 169 2 5.62048 6.16568 -2.32198 -5.73049 15.6706 7.58406
505 169 1 6.53504 6.67876 -2.35459 23.0418 -28.6974 -8.72649
573 191 2 5.56315 0.874855 2.93659 -8.79546 -8.30731 -10.3774
602 201 2 2.39146 2.56985 -2.23827 -5.20184 -30.6253 4.59853
601 201 1 2.95931 3.26131 -1.7852 9.18674 50.7879 -11.582
230 77 2 0.46732 6.28481 -1.55115 12.816 -15.4608 -2.86399
54 18 2 4.94148 3.18964 0.413988 -6.79246 -11.2266 -11.0554
320 107 2 3.87838 5.73469 3.12838 -2.27462 -2.91553 9.78102
319 107 1 3.83193 5.08736 2.32397 -0.523851 -4.54585 -12.3333
321 107 2 4.44433 5.53132 1.65503 9.01565 2.53085 -4.68919
297 99 2 2.45712 2.17318 1.50269 2.83064 1.00858 3.50277
530 177 2 3.33336 0.624867 -3.12497 28.5674 -1.95274 15.703
496 166 1 4.74462 0.0484085 -2.28907 22.5075 -5.90779 -22.0137
52 18 1 5.68461 3.28554 -0.284338 7.40641 0.234194 25.1337
53 18 2 5.56999 2.81537 -1.19849 -8.67639 9.5171 1.0686
603 201 2 3.32828 3.15798 -0.843826 -12.7032 -25.0432 13.1515
57 19 2 3.9797 4.67796 -1.74809 3.1941 5.74584 -19.3491
56 19 2 3.95254 6.02489 -0.920249 -2.39881 13.4974 2.52176
55 19 1 4.25907 5.67579 -1.8084 -3.263 -20.6369 8.02671
399 133 2 2.81507 6.68498 0.223316 -4.8049 -12.3097 -7.82615
331 111 1 5.70603 3.23566 -2.92665 22.9633 -15.2066 8.97384
296 99 2 3.48001 3.5456 1.65107 -11.4166 3.38629 8.13632
295 99 1 3.1238 2.79409 1.03949 12.1009 -0.826112 -11.1671
427 143 1 6.72484 6.10802 1.31018 0.500163 -2.22038 -29.7413
429 143 2 6.71597 5.12449 1.45575 -5.45955 -24.2143 28.212
95 32 2 -3.04279 -6.65278 4.04933 14.0159 -4.97097 -6.30153
486 162 2 -2.31217 -3.6861 3.40375 1.48961 0.132403 -8.69822
326 109 2 -6.75191 -2.37844 9.39115 2.88164 1.92006 5.83558
325 109 1 -5.96248 -3.03028 9.39108 -2.34299 3.90319 2.88222
192 64 2 -2.9128 -4.7801 6.36581 2.35652 -3.64692 4.61782
402 134 2 -1.40725 -2.99006 6.58313 -2.0003 0.27921 1.18797
400 134 1 -0.648549 -3.0916 5.90187 1.26816 -0.678722 -1.3277
240 80 2 -2.86175 -3.51664 8.79383 -3.13069 -3.22385 -24.9417
112 38 1 -6.12343 -4.95072 7.36057 -4.95316 -13.8629 -30.0055
101 34 2 -0.840179 -0.243755 4.47082 4.45584 5.52407 -3.60756
190 64 1 -2.96085 -5.41459 5.55528 -6.70533 9.58085 -0.615162
191 64 2 -3.91643 -5.32541 5.19966 1.40653 -0.326286 -5.17828
238 80 1 -2.95277 -3.58622 7.74728 8.35027 -0.1368 18.0906
239 80 2 -3.79877 -3.10942 7.46835 -5.75122 5.11039 3.35354
389 130 2 -4.99085 -1.06632 4.57286 -11.3609 15.6407 13.7926
114 38 2 -5.58843 -5.77772 7.63918 4.836 -0.835608 7.94941
100 34 1 -0.800846 -1.05589 3.85154 3.19669 15.9745 -9.61625
102 34 2 -0.854662 -1.82547 4.49277 1.56305 -19.5978 22.1333
513 171 2 -5.6656 -5.08555 5.54389 -5.37936 5.33243 -6.39908
113 38 2 -5.89316 -4.1507 7.93628 2.07007 9.28128 22.0567
388 130 1 -4.79348 -0.249282 5.19703 7.7983 -10.6795 -16.7753
575 192 2 -5.76605 -3.21294 4.14519 -0.470319 0.431867 -6.44945
511 171 1 -5.5958 -4.77322 4.55689 22.6265 5.93988 30.2645
512 171 2 -6.3176 -5.24217 4.05059 -20.8813 -19.5278 -16.2808
574 192 1 -6.11175 -2.27683 3.84992 2.48613 -2.02375 18.2508
417 139 2 -0.265942 -6.69315 5.19739 -5.74694 -1.18271 -12.6824
415 139 1 -0.320036 -6.1024 6.0263 1.0918 -2.37342 5.14086
416 139 2 -1.18533 -5.5409 6.05481 -0.167242 -9.37367 -9.82199
527 176 2 0.695684 -3.48783 4.2333 -6.55327 -4.67869 4.17608
401 134 2 0.0874643 -3.61462 6.40881 1.04596 5.14701 -4.75157
606 202 2 6.88935 -0.521204 7.45479 -30.9604 -11.4684 -20.5316
605 202 2 6.62886 -1.69 6.35535 -6.81747 -14.9345 -12.3912
604 202 1 6.12971 -1.0143 6.90702 32.9666 38.8071 35.8324
439 147 1 5.22601 -3.54035 9.18459 -12.2333 -7.95734 1.87401
441 147 2 6.08367 -4.021 9.37916 11.9578 -10.8559 0.161514
615 205 2 3.18155 -1.12257 5.41425 1.17131 -4.68914 1.9854
26 9 2 4.2612 -0.458001 8.45864 -2.78218 1.42605 -12.4778
25 9 1 3.98485 -0.121936 9.37277 6.58027 -1.79873 9.57325
613 205 1 2.77596 -0.253303 5.77739 -3.03015 -7.09013 -3.3233
291 97 2 0.965502 -3.65581 8.27789 -6.82469 6.22699 16.3339
289 97 1 1.43552 -4.09924 7.497 5.44163 17.713 -17.5134
526 176 1 1.47259 -3.95317 3.7722 -19.0116 -1.46929 -14.954
528 176 2 2.29389 -3.55308 4.22882 19.8519 2.96104 12.9129
614 205 2 1.96424 -0.514155 6.34592 0.36323 8.9837 -4.60418
403 135 1 3.37394 -2.98547 5.23406 31.7096 -2.11762 6.94596
290 97 2 1.18752 -5.08155 7.45554 2.48149 -13.9196 2.77534
65 22 2 6.74853 -4.01829 5.926 -8.86487 -0.373712 1.2378
405 135 2 4.39039 -3.27774 5.23311 -21.6421 10.8934 0.677151
61 21 1 6.69818 -6.54001 3.30834 2.91903 35.0173 -7.63778
440 147 2 5.38226 -2.57964 9.44876 0.300033 13.184 3.54619
404 135 2 2.97656 -3.20945 6.15243 -0.244859 -4.10133 2.07927
155 52 2 6.51305 -6.70675 7.00894 6.00873 6.51502 0.701568
66 22 2 6.89268 -2.93373 4.73375 5.26212 10.7311 -14.8687
581 194 2 4.28204 -7.01359 4.43351 14.9205 18.9311 3.28508
64 22 1 6.20729 -3.39783 5.31637 1.80599 -12.4487 11.7805
407 136 2 0.727441 -6.82175 7.03284 4.13212 7.71225 -4.6
406 136 1 1.30102 -6.84163 7.89222 17.7038 3.89645 -11.6122
293 98 2 3.75129 -5.14024 9.57986 -16.2009 -9.85312 -15.3131
408 136 2 0.57372 -6.71255 8.60783 -10.9739 -4.25159 20.6706
294 98 2 2.57394 -6.4285 9.19029 -16.804 6.89757 -28.2498
166 56 1 -0.187193 6.27404 3.84625 -5.68439 11.5392 -3.58505
443 148 2 -0.657388 3.18483 3.36963 1.37635 5.41534 -14.333
544 182 1 -3.89127 1.83287 3.42012 -5.389 -40.638 -0.996595
314 105 2 -0.976528 6.65888 6.97353 10.8465 19.0556 -5.75217
313 105 1 -1.61861 6.11191 7.50702 -7.56951 -3.39573 6.45467
315 105 2 -1.71434 5.25186 6.96183 -13.5361 -11.8128 2.53775
211 71 1 -6.18259 1.10345 7.13657 -16.1066 24.6173 9.51407
390 130 2 -5.64636 0.162501 5.62076 7.19461 -3.87202 -1.00634
212 71 2 -6.78253 1.93741 6.97144 13.599 -16.2344 -1.59598
77 26 2 -1.03081 0.549002 6.36449 16.517 7.22945 2.76247
213 71 2 -5.53084 1.38865 7.88095 -0.513581 -5.04798 -1.92453
493 165 1 -2.66627 0.654107 6.59381 -27.0536 3.40205 24.0064
494 165 2 -3.09393 0.82846 7.53336 17.2344 -4.31681 -23.4497
495 165 2 -3.46824 0.318384 6.01257 8.63017 1.56265 1.05074
577 193 1 -4.34723 1.74309 9.50814 7.76067 12.9226 -5.42444
562 188 1 -3.28977 4.5607 3.61776 11.1577 -4.98236 11.2801
564 188 2 -3.43749 3.57396 3.35614 -8.2712 3.59464 7.9004
546 182 2 -4.11778 0.909895 3.88292 8.99604 34.8916 2.30288
111 37 2 -4.57379 6.59011 4.64089 -14.4083 -5.45595 -2.94359
589 197 1 -1.90693 2.96775 9.0771 -32.9775 2.03879 0.0943177
110 37 2 -6.16996 6.29188 4.10785 5.30722 -1.49219 1.40916
109 37 1 -5.55998 6.46623 4.91594 6.37852 7.25795 2.45242
23 8 2 -3.05518 4.22859 5.37508 -6.95483 10.6124 -23.9281
22 8 1 -2.72037 3.99043 6.29541 10.9357 -25.4935 20.0242