ITEM: TIMESTEP
19000
ITEM: NUMBER OF ATOMS
648
ITEM: BOX BOUNDS pp pp pp
-7.3466593091978565e+00 7.3466593091978565e+00
-7.3466593091978565e+00 7.3466593091978565e+00
-1.6325909575995780e+01 1.6325909575995780e+01
ITEM: ATOMS id mol type x y z fx fy fz
31 11 1 -2.43091 -2.28736 -11.9597 -9.13052 2.63749 6.65344
139 47 1 -6.57014 -2.84902 -14.0081 -24.2899 -19.0763 23.5707
141 47 2 -6.23871 -3.64659 -13.4292 15.0768 9.14025 -1.39737
555 185 2 -3.2481 -3.32196 -13.8825 0.57014 -1.28373 -1.53252
553 185 1 -3.44272 -4.30483 -14.0543 -6.15344 -12.0097 7.42448
554 185 2 -3.02863 -4.64631 -14.919 3.81848 9.34597 -9.9124
323 108 2 -6.05091 -0.892133 -13.872 -3.40245 9.76525 15.5134
540 180 2 -3.91673 -5.96055 -13.6124 1.1704 16.8359 1.54335
538 180 1 -3.93484 -6.83114 -13.0812 0.87315 25.5646 18.0321
142 48 1 -5.73172 -4.67867 -12.1491 9.30079 -9.02614 6.97483
32 11 2 -2.04248 -2.74173 -11.1174 8.63068 -5.23369 -7.58241
143 48 2 -4.84172 -5.16654 -12.1319 13.8402 11.4425 -20.3934
144 48 2 -6.12186 -5.38868 -11.5059 -22.23 5.11695 0.0528281
582 194 2 -2.16105 -2.09249 -13.6008 15.6763 -2.90123 -0.076993
581 194 2 -1.47444 -2.01422 -15.2767 -9.49472 -2.49951 22.4717
580 194 1 -2.01859 -1.59189 -14.4991 0.663505 7.44163 -17.2516
33 11 2 -3.14001 -1.66152 -11.5753 -3.90923 3.60582 0.547263
469 157 1 -6.71141 -6.3725 -10.5029 11.7244 1.19929 47.9606
81 27 2 -5.19741 -0.183506 -10.7814 -2.4659 0.623884 7.1166
309 103 2 -0.186375 -4.12632 -10.3308 5.11255 10.3381 -3.44415
449 150 2 -2.61514 -6.09531 -11.7335 4.33216 4.00033 -1.37952
450 150 2 -1.71225 -5.12321 -10.6403 -5.79375 -5.84715 -13.4263
448 150 1 -1.7149 -5.95981 -11.2617 6.20941 2.95379 14.388
471 157 2 -7.33387 -5.60191 -10.2257 -5.20358 -3.01334 -1.26525
294 98 2 -0.779085 -0.0665726 -13.3164 -0.947859 -1.13626 2.6229
201 67 2 -2.78018 -0.229815 -14.2033 4.23202 9.33969 -4.56263
641 214 2 -0.318096 -7.16167 -11.5358 1.5717 -19.7931 -23.3224
174 58 2 -7.07614 -6.56375 -16.1467 13.0805 -14.8068 19.8999
172 58 1 -6.76726 -7.2058 -15.3855 -23.2444 4.09574 -16.4004
123 41 2 -5.68331 -3.43589 -10.9097 -12.7857 -9.10856 2.79331
121 41 1 -5.78142 -3.0114 -9.97824 20.5525 15.405 -0.717582
80 27 2 -4.90105 -1.52234 -9.93407 6.63758 1.54875 -1.38568
79 27 1 -4.42745 -0.6789 -10.3204 -1.12683 -5.08324 -8.28995
307 103 1 -1.02073 -3.61254 -10.0469 1.52897 14.1063 18.2994
489 163 2 -5.29445 -3.04027 -15.3744 -3.11791 -2.35541 13.6888
140 47 2 7.10984 -3.01477 -13.8283 14.0533 15.1549 -12.6268
515 172 2 0.230158 -3.48971 -16.2531 21.6613 0.596988 4.46614
490 164 1 5.26694 -6.25089 -13.7571 7.52616 8.10488 0.0216132
491 164 2 5.40841 -5.33851 -14.2132 -3.50626 4.61884 1.21023
119 40 2 1.7437 -4.72967 -10.7637 -12.1874 -3.24917 13.1251
118 40 1 1.78381 -3.8874 -11.3198 0.991223 -12.5265 -0.397924
120 40 2 2.69085 -4.0617 -11.7191 9.99135 13.9991 -12.0894
492 164 2 6.14034 -6.76164 -13.855 0.0385553 -3.90935 -1.19771
171 57 2 1.46359 -1.73689 -11.1334 16.3666 10.411 -1.59874
170 57 2 2.66451 -0.656543 -10.5349 -2.85208 -7.15511 0.816284
169 57 1 2.11098 -0.953841 -11.3497 -3.38122 1.51177 -0.0738103
12 4 2 5.68342 -5.19685 -11.5874 3.91882 22.3768 13.2648
10 4 1 5.71916 -4.52946 -10.7858 2.34781 -38.2958 -13.8284
11 4 2 5.06907 -5.00447 -10.1115 0.741938 14.4032 -5.42414
464 155 2 6.06895 -2.88429 -10.9251 -2.58744 -19.8611 4.15144
383 128 2 3.9018 -0.374169 -14.1537 -2.41389 -4.09805 -11.8721
54 18 2 7.15472 -0.810994 -10.9724 0.42525 27.9312 4.2335
258 86 2 2.32358 -7.27546 -13.2098 3.7274 0.778897 0.281305
257 86 2 3.68149 -6.38085 -13.7574 -15.8015 -6.14193 2.65996
256 86 1 2.63116 -6.47445 -13.7625 9.26884 2.38741 -3.25082
463 155 1 5.93068 -1.91092 -11.1831 -10.8071 22.6223 -13.0375
465 155 2 4.95082 -1.79861 -11.4823 13.9346 0.208838 6.80028
612 204 2 2.14416 -4.04793 -15.4293 -13.6247 -2.48389 13.4603
384 128 2 5.43309 -0.313891 -14.534 -5.88532 -8.31304 -15.5973
382 128 1 4.582 -0.85407 -14.7745 4.21486 16.4665 18.2949
387 129 2 3.90476 -6.78207 -10.0123 -7.80364 -17.4361 1.8464
237 79 2 0.249944 -6.01495 -9.84859 -2.41969 -1.01524 13.4202
280 94 1 5.5067 -3.55827 -14.741 0.475788 -9.11003 -1.8838
282 94 2 4.7224 -2.88845 -14.8078 14.0885 2.61517 -0.0383075
281 94 2 6.25061 -3.32196 -15.4292 -13.1005 4.6053 1.5768
271 91 1 1.26534 -7.02845 -16.3046 -7.31437 -44.286 -17.5838
610 204 1 1.2124 -3.90738 -15.0055 9.81682 1.10098 3.27198
611 204 2 1.1769 -4.18557 -14.0122 5.03125 1.013 -12.8124
272 91 2 2.00913 -6.75795 -15.6885 12.3458 10.9715 19.3016
207 69 2 -6.66347 6.97633 -13.3604 10.3673 14.4213 -0.158489
205 69 1 -6.54296 6.60942 -12.4162 -10.1962 -51.4266 -12.84
206 69 2 -6.32746 7.24182 -11.6389 -3.71709 18.3595 -1.61481
322 108 1 -5.96208 0.114191 -13.6128 7.0104 -1.46576 -1.42758
173 58 2 -7.10002 6.54404 -15.6302 5.50941 8.45191 0.870393
52 18 1 -7.08122 0.139645 -10.8255 1.67725 -15.2456 -8.30655
539 180 2 -3.91323 7.19005 -13.8473 3.95952 -26.1963 -2.54533
180 60 2 -3.63484 6.94114 -11.6395 -12.763 -2.21329 2.16913
542 181 2 -3.24139 0.940202 -15.7435 -8.92545 0.946842 -13.1939
98 33 2 -5.76514 4.5714 -12.4084 -7.99516 6.81093 -9.34764
64 22 1 -3.25026 5.76593 -14.4246 -0.733363 -16.4742 -6.71868
65 22 2 -3.19298 4.99064 -13.7714 -4.28672 -2.91572 5.79284
324 108 2 -6.09485 0.368722 -12.6148 -6.16781 -14.8851 -12.0755
60 20 2 -7.23051 0.796377 -14.5697 14.2268 -2.64815 12.1558
482 161 2 -2.98444 2.65135 -13.1646 8.30669 -4.4409 4.04949
481 161 1 -3.22679 3.35177 -12.4586 10.4076 -0.174118 -16.4824
584 195 2 -1.41097 3.45138 -11.6577 -7.53756 -10.4119 -9.72694
583 195 1 -0.528025 2.95053 -11.5451 20.9407 -13.6428 0.70639
292 98 1 -0.0551475 0.64498 -13.224 6.48302 7.51935 -15.758
97 33 1 -5.85239 3.65755 -12.8593 10.2373 -4.47258 12.7707
99 33 2 -6.1628 3.73369 -13.8327 -10.0723 5.43203 -3.74861
423 141 2 -6.15228 3.74398 -15.9237 -8.17659 0.642159 -1.29099
624 208 2 -4.15623 4.20298 -10.4643 -4.64092 -6.77108 8.47132
622 208 1 -4.67229 3.48127 -9.93661 -26.7018 2.57145 -8.71074
623 208 2 -5.63215 3.39545 -10.3294 21.5997 1.75293 5.93893
483 161 2 -4.247 3.34483 -12.5347 -13.1952 3.96548 5.01591
585 195 2 -0.348901 2.13572 -12.1727 -13.532 12.3491 4.97353
179 60 2 -2.83296 5.71815 -10.9582 2.39594 -3.7364 4.79956
178 60 1 -3.62569 6.33113 -10.8028 8.22779 2.20402 -16.8776
199 67 1 -3.21413 0.718104 -14.1155 4.60138 -4.97185 2.10268
200 67 2 -4.1741 0.526821 -13.8435 -15.3849 2.87416 1.99949
270 90 2 -3.12783 0.614349 -9.82607 -0.47661 -5.89254 4.37805
642 214 2 -0.198373 7.00602 -13.1341 -1.9454 2.35998 0.869314
421 141 1 -7.01952 3.96177 -15.4094 8.8034 3.29406 -3.76392
395 132 2 -0.586595 4.85899 -15.6555 -4.14918 8.21948 -0.976743
66 22 2 -2.41335 5.66042 -15.0367 -2.70301 8.79507 -3.17671
396 132 2 -0.487361 6.46956 -15.2555 -4.83179 -1.86908 -12.9944
394 132 1 -1.05827 5.78494 -15.7624 20.203 -7.90667 8.09425
456 152 2 2.62454 0.323977 -12.5721 9.36098 1.25339 -9.06246
454 152 1 3.00783 0.941562 -13.324 -24.6507 -14.3895 22.3837
53 18 2 6.9085 0.897704 -10.8745 -3.60815 -4.6466 1.58929
227 76 2 6.96542 5.65932 -11.6112 -9.82487 -0.17252 6.57125
145 49 1 2.06343 5.10912 -12.085 -5.72813 -8.94876 -7.13701
146 49 2 2.75452 5.54325 -11.4876 11.7137 4.00259 13.7103
147 49 2 1.16633 5.5586 -11.8195 3.0069 -1.49933 -9.49156
640 214 1 0.0768745 6.80062 -12.1813 -13.6517 23.8856 21.977
59 20 2 6.48891 2.10115 -15.0013 5.36198 -8.71435 -1.07397
58 20 1 6.68836 1.09948 -15.154 -14.2166 9.66291 -7.49365
226 76 1 6.13983 5.22469 -11.1383 9.08993 0.361904 -15.6007
503 168 2 3.78296 2.47923 -12.7451 9.69378 10.4835 -17.1348
502 168 1 3.96447 3.41799 -13.1626 11.246 -22.486 13.9113
504 168 2 3.0766 3.88786 -13.0543 -9.83936 21.9907 4.39191
293 98 2 0.447908 0.643385 -14.1428 -6.75049 -2.40058 10.5983
455 152 2 2.17143 1.42913 -13.6668 11.1209 -6.21223 -5.19582
228 76 2 5.57069 4.81578 -11.8836 -2.26197 2.9167 0.369722
477 159 2 1.78166 1.44323 -16.153 1.30706 -5.16419 17.6712
475 159 1 1.11021 0.797831 -15.7021 -4.83494 2.14225 -36.8563
621 207 2 0.0249539 0.383542 -10.5965 3.86156 -3.59877 -1.06684
522 174 2 3.67102 2.79385 -15.1331 17.2065 4.65422 21.1093
335 112 2 4.72011 6.06156 -10.0768 -22.8234 1.08787 -3.67107
195 65 2 5.59322 2.96775 -11.2012 4.98547 -0.532072 -3.74941
209 70 2 0.389954 3.26892 -10.2081 12.1956 19.7726 9.43425
194 65 2 4.91095 2.37929 -9.86981 -4.32174 -4.13421 3.8168
193 65 1 5.66312 2.19409 -10.5491 6.505 2.28384 -4.58035
334 112 1 3.7009 6.29813 -10.0509 29.7326 -10.5397 -5.20035
83 28 2 0.682122 3.64021 -13.8933 -3.84368 1.43172 -7.53109
422 141 2 7.10515 4.55634 -16.0434 -1.34757 -5.04802 1.59274
84 28 2 0.0494592 2.62737 -15.0787 1.76982 -4.95815 -1.78518
82 28 1 0.276245 3.58822 -14.8356 -0.643936 5.75563 9.28538
520 174 1 3.23162 2.896 -16.0249 -19.9301 1.54412 -34.5565
308 103 2 -0.734627 -2.83312 -9.41205 -2.51021 -15.6267 -10.656
549 183 2 -0.28689 -4.11512 -6.05813 -3.94867 -1.16289 -8.93142
548 183 2 -1.46411 -4.80411 -7.06556 19.5334 5.68149 4.75161
547 183 1 -0.44519 -4.73211 -6.87617 -17.5062 -4.93143 5.73664
122 41 2 -6.53797 -3.30774 -9.35988 -5.83856 -1.45988 -0.547661
246 82 2 -6.92451 -1.98194 -7.43001 -13.8222 -19.2837 1.07802
602 201 2 -4.40587 -3.85898 -4.92293 10.1579 1.44016 8.64989
601 201 1 -3.7562 -4.65665 -4.89676 -11.5334 -14.1417 -17.8333
603 201 2 -3.05738 -4.60365 -4.16054 -5.15591 15.6381 5.39635
9 3 2 -7.21611 -4.44382 -7.43668 3.78039 -5.15326 -3.11798
470 157 2 -6.29797 -6.73327 -9.60997 -11.2565 6.07332 -21.2679
117 39 2 -5.19025 -0.983158 -4.31822 -7.43169 -5.43239 -1.97289
115 39 1 -4.829 -1.84043 -3.90313 12.5959 7.93609 2.56504
87 29 2 -0.241791 -6.63679 -6.83077 5.70728 10.9714 -4.94577
259 87 1 -0.297059 -2.64119 -4.81637 25.5968 -10.9544 -23.9696
507 169 2 -5.29155 -0.369472 -6.19781 21.0812 5.61588 -12.9869
260 87 2 -1.21585 -2.43189 -4.47471 -19.5287 0.920797 14.9157
505 169 1 -6.208 -0.802624 -6.20151 -36.4443 0.253935 6.9396
506 169 2 -6.94908 -0.109214 -6.04326 9.63299 -6.38787 -3.06896
44 15 2 -5.10804 -5.64357 -7.39392 -5.28809 -18.0631 -9.24908
43 15 1 -4.44694 -6.32192 -6.98667 2.2775 28.4922 22.7847
7 3 1 -6.97941 -5.4561 -7.34351 -11.8521 12.985 -9.46348
45 15 2 -4.39109 -5.80155 -6.07757 13.9081 -16.3421 -8.71281
116 39 2 -5.52193 -2.34102 -3.35539 -16.337 -1.80493 0.237981
253 85 1 -7.29557 -5.7797 -4.75464 4.79695 -7.37524 9.85812
255 85 2 -6.92417 -5.10594 -4.06226 -7.0323 3.68141 -13.5953
8 3 2 -7.09145 -5.64057 -6.32918 1.9893 -2.17138 6.00396
37 13 1 -7.2453 -3.37377 -3.50796 -20.8068 11.5394 9.74285
236 79 2 0.728755 -4.98649 -8.53502 -11.5459 -7.05006 1.66339
15 5 2 0.470255 -2.09633 -6.92601 -1.75944 2.12093 -4.51364
13 5 1 0.689458 -1.97553 -7.92477 -10.9242 5.29918 10.5838
14 5 2 0.331109 -1.03365 -8.16505 4.56553 -8.81273 -6.37873
385 129 1 3.74548 -5.8188 -9.70808 -24.6514 30.5476 12.2074
386 129 2 2.74829 -5.69774 -9.40907 17.6142 -11.1161 -7.74189
104 35 2 1.21393 -7.23568 -5.71142 -5.66804 1.23593 2.7698
105 35 2 0.766258 -6.35155 -4.33763 0.936425 -4.70565 -6.61626
103 35 1 1.55152 -6.63848 -4.94289 1.72358 10.71 7.90598
244 82 1 7.22807 -2.8297 -7.74692 4.45392 12.0431 -0.770602
362 121 2 3.52936 -1.48507 -8.37462 4.54131 -10.7333 6.12862
361 121 1 3.32528 -2.26066 -7.70074 -6.8569 10.0183 2.23766
363 121 2 2.28855 -2.29454 -7.65727 5.81519 -0.0683174 -5.68284
634 212 1 5.29025 -7.29834 -7.58759 -15.6567 3.35415 -3.1893
20 7 2 3.17986 -5.06116 -7.47963 9.77323 9.74089 -9.70635
21 7 2 2.91272 -5.61675 -6.02828 12.18 -3.61944 4.34228
19 7 1 3.68834 -5.3509 -6.65255 -26.9831 -7.95376 8.03264
636 212 2 4.53988 -6.58348 -7.48124 4.58921 -13.9452 2.70264
261 87 2 0.347741 -2.92102 -4.06591 -10.1895 -2.36447 7.46844
635 212 2 6.08939 -6.72833 -7.38442 24.0783 7.37074 2.51267
245 82 2 6.22118 -2.63676 -7.76673 6.67995 2.84686 4.09545
414 138 2 5.07048 -0.291325 -8.90498 -5.75459 -5.26624 -3.39493
231 77 2 3.86925 -0.55592 -6.39718 16.2224 11.3311 -5.47782
300 100 2 4.87952 -4.24773 -5.66587 -9.46517 5.80296 -7.76993
299 100 2 4.25114 -2.65171 -5.5742 -6.20651 -4.2109 -11.5362
298 100 1 4.98745 -3.29116 -5.31045 19.2841 1.35972 20.2168
235 79 1 1.00412 -5.68916 -9.23669 14.2051 8.01564 -11.3604
63 21 2 2.50376 -5.77282 -3.74218 -0.510776 -4.97419 4.15054
412 138 1 4.07798 -0.253165 -9.21381 7.71831 5.40949 -1.52211
648 216 2 0.591243 -0.113112 -4.26895 19.413 -3.42632 16.6215
646 216 1 1.08864 -0.134239 -3.3383 -16.4835 -0.244149 -17.2861
254 85 2 6.7257 -6.37545 -4.26592 -0.346749 1.61485 -0.306357
39 13 2 6.66505 -3.03903 -4.10976 14.9141 -10.3568 0.296073
311 104 2 4.05269 -0.567198 -3.35271 -7.07364 -13.9089 4.67613
268 90 1 -3.00111 1.4501 -9.24057 -9.94993 -8.79286 -8.2075
269 90 2 -3.83562 1.99477 -9.53262 12.7327 11.9078 7.25778
619 207 1 -0.330076 0.0964345 -9.68731 -5.94172 2.94436 0.697283
620 207 2 -1.09999 0.722722 -9.44063 2.18312 -0.238068 2.90784
133 45 1 -2.63508 6.84113 -8.30565 8.73342 3.77977 7.57689
135 45 2 -3.36847 7.34637 -7.79888 -6.67822 5.85005 4.433
606 202 2 -1.40704 2.24417 -5.09256 -6.12793 6.28082 4.05751
593 198 2 -0.857613 0.207838 -5.56974 4.65555 3.43153 -5.72927
86 29 2 -1.10924 6.71169 -6.94072 18.8207 -1.95362 -9.76623
85 29 1 -0.125995 7.04529 -6.86529 -18.2285 -8.40651 7.85787
134 45 2 -2.80788 7.01519 -9.29753 -3.09592 -8.78008 -2.82284
365 122 2 -3.01257 0.396454 -6.19859 -12.1459 -0.829007 -7.09917
364 122 1 -3.77439 0.0879314 -6.83512 20.983 10.7637 1.96923
366 122 2 -3.4989 0.421071 -7.77042 -6.7615 -2.86442 4.6028
69 23 2 -5.31326 3.41001 -8.06047 1.70596 1.95031 5.35631
67 23 1 -6.02889 3.65171 -7.36316 3.5592 2.05445 -23.4033
68 23 2 -6.82589 3.99917 -7.93008 5.07363 13.7165 5.92954
569 190 2 -1.01008 4.91619 -4.74044 -1.60888 14.4821 9.12631
568 190 1 -1.67159 4.31553 -5.21505 6.9202 -31.5147 -14.811
570 190 2 -2.54308 4.77646 -5.48289 -8.13943 12.9174 5.65579
342 114 2 -4.40899 5.22104 -6.38508 -0.747981 8.89738 8.53004
340 114 1 -4.02436 5.76587 -5.59878 2.36207 -22.96 -3.75857
617 206 2 -1.86365 2.23454 -8.28562 9.45443 -2.75139 -4.20431
618 206 2 -1.33255 3.09791 -7.00501 9.90717 -6.93211 -11.1102
616 206 1 -0.98992 2.54941 -7.8166 -15.7666 13.7818 19.8314
480 160 2 -7.33642 6.09538 -5.33432 16.6324 3.61532 -10.32
341 114 2 -3.85579 6.72641 -5.85962 -5.53624 12.5041 -7.419
645 215 2 -6.51364 3.22793 -4.76128 1.04078 0.79215 -11.8187
164 55 2 -7.34089 3.0978 -6.83182 -6.23604 1.6675 10.4399
604 202 1 -2.03895 1.45534 -5.24512 0.743935 -10.7445 -3.85069
605 202 2 -2.7834 1.40278 -4.56012 -9.41474 5.40482 15.0341
303 101 2 -2.12746 3.60332 -3.47199 0.485309 1.71796 -5.0838
420 140 2 -4.90196 1.90073 -3.65488 4.2208 9.35715 18.2546
644 215 2 -7.01158 2.64687 -3.35512 -3.84234 0.300019 2.55318
643 215 1 -6.18185 2.72948 -3.94547 -13.5843 5.55182 -2.97786
210 70 2 0.325623 3.28082 -8.58707 3.00316 7.29841 -12.4443
229 77 1 4.54898 0.174312 -6.11613 -0.0125508 -9.07425 -19.8242
230 77 2 5.38043 0.271234 -6.73767 -18.2661 -7.90825 5.52209
594 198 2 0.250572 0.991734 -6.49537 -0.261679 -12.3829 2.84692
592 198 1 0.0975288 0.127929 -5.9548 3.62496 9.60479 -2.58773
599 200 2 6.50017 5.15479 -9.53736 -6.27154 3.68356 -13.2074
598 200 1 6.65219 5.21491 -8.53005 7.73105 -0.10328 25.1939
208 70 1 0.891013 3.68363 -9.37394 -14.957 -30.4021 1.04394
128 43 2 3.17751 2.58266 -8.12628 11.9419 -3.36843 4.3821
639 213 2 1.51556 6.06991 -7.60299 19.0413 -22.5369 -11.3813
336 112 2 3.35993 6.08909 -9.09651 -5.8263 -4.07474 -2.28596
446 149 2 5.68788 7.03373 -3.32259 -1.78059 14.1186 9.86961
637 213 1 2.28003 5.40735 -7.90447 -29.9084 2.89335 3.55414
600 200 2 6.13671 6.00971 -8.0908 0.986663 -8.21837 -9.06758
638 213 2 1.84431 4.61243 -8.46529 5.66841 29.6397 11.7602
285 95 2 6.50356 1.24719 -7.80054 2.32561 -1.03683 0.563372
283 95 1 6.49034 0.291844 -8.18213 -3.08812 7.95521 8.28438
284 95 2 7.14964 0.235242 -8.96322 2.50081 -2.17179 -3.57487
413 138 2 3.95299 0.763386 -9.24544 -11.9768 4.06316 -2.86718
165 55 2 5.63809 3.31395 -6.52042 7.56462 5.28561 1.4242
163 55 1 6.48119 2.71732 -6.40593 -4.49002 -18.9768 -3.95337
129 43 2 2.65329 2.9405 -9.5351 -12.9836 7.68903 -16.3846
127 43 1 3.44181 2.47677 -9.10619 0.706186 -4.36402 15.6524
478 160 1 6.50903 5.99537 -4.81209 -9.52004 3.59512 22.8152
90 30 2 3.74086 5.07459 -6.67801 8.91608 -19.8874 6.32999
479 160 2 5.78649 5.65284 -5.43549 -10.1068 -6.45802 -10.4026
89 30 2 4.02274 3.88177 -5.4436 -9.60806 -0.649585 -4.40949
88 30 1 4.41501 4.39019 -6.2612 -4.81824 21.928 -5.66585
567 189 2 0.388621 5.6036 -3.64342 -12.499 6.92328 15.4552
36 12 2 3.95154 2.22165 -3.98591 -8.85814 -7.46026 1.65065
312 104 2 4.51312 0.380667 -4.63217 1.37417 -3.14626 -6.26776
35 12 2 2.38379 2.87308 -3.86218 -0.27933 -6.87341 3.81718
34 12 1 3.30703 2.9537 -4.3103 10.2801 11.0959 -0.310479
348 116 2 5.29728 3.91669 -3.34051 1.25138 -4.3576 4.27417
310 104 1 4.43117 0.320539 -3.59934 6.02397 23.0389 18.7675
544 182 1 -1.02414 -6.10195 -3.14668 -27.1513 18.165 -1.14941
232 78 1 -0.886642 -1.30433 -1.62664 -10.0569 2.75552 -12.2175
93 31 2 -4.48684 -6.69845 -1.95558 4.75044 -11.4652 -3.09125
279 93 2 -6.65376 -5.68711 -1.86084 -5.36118 -12.6879 0.950717
546 182 2 -1.20696 -5.08738 -3.03879 18.4513 -11.0322 0.241085
545 182 2 -1.99426 -6.4586 -3.10146 9.85734 -9.70803 4.2281
321 107 2 -3.5115 -2.30406 -3.20277 -2.38179 -3.81728 -9.72395
277 93 1 -5.71124 -5.52944 -1.53544 -5.0691 12.5746 -10.1916
278 93 2 -5.61711 -4.51456 -1.63168 10.9498 -0.847874 4.20003
320 107 2 -2.01463 -2.2787 -2.42521 2.2369 -5.09672 -2.82616
319 107 1 -2.63284 -2.83325 -3.04178 20.7402 -3.6484 11.2978
607 203 1 -0.728727 -4.0061 2.10963 12.2622 -10.4191 34.222
608 203 2 -0.912328 -4.34869 1.19517 -7.36833 -10.1196 -24.646
367 123 1 -5.43815 -2.63552 -0.892939 4.40241 -27.4599 10.0359
167 56 2 -3.23116 -1.47991 1.6594 11.5696 -9.45896 0.918382
166 56 1 -2.8003 -1.17029 0.780848 -17.7774 10.0695 10.023
168 56 2 -3.39379 -0.349268 0.53256 13.8019 -4.70992 -10.665
609 203 2 -1.59058 -3.75463 2.58754 -20.2069 7.02242 2.31695
369 123 2 -4.60423 -2.08474 -0.714705 -0.506308 3.02768 -0.931228
149 50 2 -3.9903 -3.63058 2.56699 4.65867 -1.00321 -14.2369
460 154 1 -5.53539 -4.07173 1.46937 -3.8635 -25.9262 26.4919
462 154 2 -5.87804 -4.9466 1.96119 10.9957 22.294 -19.6688
368 123 2 -5.43219 -3.41485 -0.187089 -3.97943 20.4885 -6.14858
461 154 2 -6.10757 -3.30938 1.86061 -8.76275 -0.271252 -6.89051
95 32 2 -7.28905 -1.94663 3.07238 -1.92129 6.65331 -4.26847
249 83 2 -0.949903 -1.20016 1.00927 -1.28898 -7.37046 -3.18482
248 83 2 -0.374566 -2.61139 1.57564 8.19832 -5.03543 -0.0385212
247 83 1 -0.0884477 -1.76383 1.06052 3.55313 25.3827 1.24571
233 78 2 -0.137822 -0.650216 -1.46792 7.15054 5.32322 4.84765
234 78 2 -1.72183 -0.901418 -1.21058 -4.68464 -1.97424 8.49446
496 166 1 -6.5941 -6.27354 2.89426 -0.579002 -25.6023 -11.8728
497 166 2 -6.85835 -7.23703 2.57227 -0.146258 30.9688 10.5207
148 50 1 -3.2805 -3.10253 3.07975 -5.68751 -14.7108 -15.4238
351 117 2 1.73059 -4.13908 -2.80991 2.12758 -10.5751 -5.34931
349 117 1 0.80569 -3.78845 -2.53998 17.4819 13.8094 20.6664
350 117 2 0.979393 -3.5157 -1.55801 -15.7468 -1.55808 -14.898
447 149 2 5.12171 -7.22646 -1.80881 -5.20667 7.92304 1.96081
62 21 2 4.00097 -5.48388 -3.20738 9.00181 -1.56817 9.87414
61 21 1 3.02249 -5.35569 -2.95554 -9.12661 3.73833 -12.0366
445 149 1 5.53606 -6.857 -2.67728 8.67591 -20.7507 -17.0641
647 216 2 0.852968 -0.986669 -2.83854 -1.65959 -4.99307 -5.68052
38 13 2 7.14278 -3.18924 -2.54911 5.28169 0.927249 -3.46337
397 133 1 4.41671 -2.11772 1.25165 -24.2915 -3.73112 -11.1909
399 133 2 3.48134 -1.77716 0.964184 15.1975 0.984226 6.78886
96 32 2 6.04565 -2.30478 2.13373 13.6689 -4.25118 -3.65282
398 133 2 4.60205 -2.90138 0.575715 8.02349 10.083 8.82185
94 32 1 7.02815 -2.55625 2.34775 -6.42358 -2.81724 7.78999
315 105 2 1.13886 -0.599049 1.14907 1.22713 -11.803 7.08891
374 125 2 0.296527 -5.93967 -1.11145 7.26588 -0.303027 -13.2621
373 125 1 1.15342 -6.2036 -0.629297 -14.4793 -4.50216 22.3436
375 125 2 2.03775 -6.12458 -1.1214 0.970406 1.90247 -16.3433
524 175 2 5.78679 -4.67828 -0.480072 -19.544 8.68127 -0.750016
523 175 1 4.93082 -4.09735 -0.529039 3.5539 -12.0585 5.95566
525 175 2 4.07794 -4.67475 -0.466363 13.5726 1.52748 -2.61231
5 2 2 4.1297 -2.55903 3.09883 0.366503 4.17402 -14.6178
159 53 2 1.83472 -6.1431 1.13312 7.02447 9.86471 -16.2456
158 53 2 2.67853 -6.18525 2.47808 11.9058 7.12788 2.49845
157 53 1 2.75005 -5.86089 1.5136 -11.6694 -15.0436 16.2746
500 167 2 3.60045 -6.86918 0.423533 2.90037 -0.347546 -5.12488
441 147 2 4.79713 -0.731006 2.32363 -11.303 -6.48413 -10.2951
91 31 1 -3.74424 7.31838 -2.24231 9.25349 18.6816 1.07259
92 31 2 -4.05834 6.57947 -2.8582 -9.75673 -1.38622 -0.649471
484 162 1 -6.95734 0.402352 2.60316 -0.714674 7.70938 1.53594
381 127 2 -0.019939 2.38065 0.523649 6.43187 3.60969 -8.09465
418 140 1 -4.13056 1.59078 -3.01093 23.8759 -12.6313 1.34228
302 101 2 -2.00987 4.67594 -2.28623 11.0251 9.0371 3.80797
301 101 1 -2.51595 3.84318 -2.56144 -10.08 -5.37529 0.573517
17 6 2 -3.95283 4.52063 -1.81631 10.4459 -11.1316 -15.258
561 187 2 -2.39372 1.76246 -0.0383235 5.80017 16.4189 3.09805
565 189 1 -0.490789 5.88614 -3.17642 18.0764 -10.7604 -16.5702
560 187 2 -1.91171 3.07078 0.981207 1.46769 -15.1238 -17.0428
559 187 1 -1.6505 2.46397 0.177101 -8.30383 -3.44426 22.3013
589 197 1 -1.66848 4.34683 2.74966 28.7984 9.68911 -2.1798
419 140 2 -3.60873 2.3769 -2.57179 -9.02615 -2.27102 -10.9822
16 6 1 -4.91184 4.59444 -1.49118 -27.2937 3.82316 9.63303
18 6 2 -5.61046 4.09004 -2.0518 13.719 2.961 -1.08142
50 17 2 -4.23341 0.917867 -1.33698 -6.83003 6.75933 8.98252
49 17 1 -3.97735 0.893805 -0.330182 31.2911 -18.3713 -5.62163
212 71 2 -4.43612 4.69955 0.0978906 -8.84395 -1.62291 -10.139
591 197 2 -0.784586 4.8931 2.56294 -15.1694 -10.9044 -2.76672
211 71 1 -4.16797 4.45555 1.05979 0.605089 -1.11933 16.2485
213 71 2 -3.17033 4.60282 1.14338 7.81708 1.25835 0.492473
557 186 2 -5.47171 2.96733 1.23342 2.41982 -6.54788 -4.73403
485 162 2 -6.74896 0.949608 1.7385 1.80629 -7.46766 17.1577
558 186 2 -6.68987 2.45935 0.248631 1.42556 -0.558432 -1.67353
556 186 1 -5.91832 2.12735 0.82566 -14.316 17.6349 8.09779
566 189 2 -0.527627 6.90591 -3.0578 -2.37442 3.12003 2.21669
51 17 2 -4.71479 1.12604 0.354766 -14.7232 13.5566 -13.296
333 111 2 -6.19107 5.47408 3.06786 -20.4999 -4.87295 -5.54176
575 192 2 -4.01082 4.91084 2.77734 -2.41817 0.47313 -5.5456
563 188 2 0.960314 1.43409 -2.97541 4.09952 -7.42488 -4.34107
314 105 2 1.36621 0.987989 1.06941 17.1502 1.48587 5.69817
379 127 1 1.01332 2.4958 0.633575 -9.07649 17.2765 11.356
380 127 2 1.14706 3.27595 1.30425 -0.103539 -13.6057 -11.6384
313 105 1 1.8393 0.11724 1.39063 -8.81051 -0.850266 -4.90581
346 116 1 6.20446 3.98256 -2.87858 5.02174 13.5841 -6.36328
564 188 2 1.1413 2.6602 -1.87758 -1.26892 3.54117 12.1487
562 188 1 0.985594 2.45585 -2.84996 -0.0375107 10.9263 -9.33461
501 167 2 4.11728 6.31234 -0.0974164 -3.01649 7.00929 -0.527615
347 116 2 6.66617 4.83481 -3.24488 -7.77378 -12.5801 2.46061
499 167 1 4.07062 7.30462 -0.342203 3.88513 -6.27723 4.78159
153 51 2 2.82627 2.68698 0.0734752 -15.3111 -7.90965 1.70091
151 51 1 3.79239 2.95829 -0.0466992 12.0262 2.41169 -0.440308
152 51 2 4.35674 2.13014 -0.249752 -2.70485 6.37438 -0.0725595
305 102 2 3.24048 4.40077 0.854615 2.71947 -5.02666 0.076696
304 102 1 2.83875 4.98647 1.60117 8.08614 -7.11928 -35.3123
306 102 2 3.4962 4.96428 2.37059 19.7944 -7.49437 18.0037
24 8 2 0.641325 6.8027 2.65303 1.07766 -0.689036 2.42503
22 8 1 0.680863 5.80192 2.41464 -38.8971 -15.8047 2.17224
23 8 2 1.5422 5.49477 1.89751 3.6467 11.3208 6.33514
614 205 2 2.39934 0.276708 3.14905 -9.08813 10.2355 -4.37772
486 162 2 6.70914 0.340468 2.77208 3.21121 -2.4322 -8.59455
439 147 1 5.1474 0.0534391 2.86265 12.2451 16.3701 15.3914
513 171 2 -2.24611 -6.87777 5.00567 -0.592851 -4.92297 13.0908
511 171 1 -2.41834 -7.2924 4.09888 11.2395 4.56937 -9.3422
512 171 2 -1.46341 -7.21357 3.66135 -18.9833 -5.46072 5.26169
411 137 2 -0.24167 -5.70945 3.37463 4.89401 7.63987 -5.713
276 92 2 -1.17791 -0.58867 5.14506 -6.18375 -8.56019 -7.87901
536 179 2 -4.00398 -6.36183 4.58105 -16.0779 2.83348 1.10588
274 92 1 -1.94421 -0.60279 4.46289 21.0622 -2.67137 20.6546
150 50 2 -3.83583 -2.94167 3.91525 3.50614 7.83054 23.4788
442 148 1 -3.38666 -5.46941 8.21261 -1.53267 26.4481 8.79121
443 148 2 -3.24869 -4.44136 8.32047 -3.67004 -18.6648 3.08538
444 148 2 -2.94152 -5.76074 7.35792 4.75938 -7.97215 -8.61194
288 96 2 -5.1199 -4.28583 5.61472 4.50566 5.6898 -10.0504
286 96 1 -4.83848 -3.32796 5.34161 -15.4453 15.999 21.8741
326 109 2 -6.05507 -6.80219 6.6655 9.58185 6.46862 -5.57133
325 109 1 -5.90901 -6.61718 7.65572 -9.37401 -11.3972 15.6375
327 109 2 -4.95143 -6.33957 7.89633 4.96392 4.11939 -3.79048
358 120 1 -1.21303 -7.19072 7.13398 17.9625 33.225 -14.9093
287 96 2 -5.46958 -2.63296 5.80818 4.63428 -16.0206 -13.5385
360 120 2 -0.703485 -6.28489 7.25955 -7.52379 -20.6279 0.406995
535 179 1 -4.92759 -6.08259 4.959 6.20799 -14.058 -5.22657
537 179 2 -5.66737 -6.29908 4.25105 13.7452 8.55121 4.56084
404 135 2 -4.45126 -1.97943 7.45299 -4.30622 6.13393 20.8738
405 135 2 -3.79089 -2.04582 8.98457 -8.32797 2.95992 -7.6937
403 135 1 -4.56914 -1.64145 8.42997 12.9162 -15.9501 -19.9707
510 170 2 -1.91933 -2.23656 9.63354 8.61142 3.43875 4.66101
508 170 1 -2.246 -2.99555 9.04667 -1.98168 -12.7535 -6.546
337 113 1 -6.86535 -1.64915 6.45572 -26.1248 -4.02825 -7.61855
338 113 2 -6.87071 -0.650682 6.50713 11.8671 15.762 2.55978
2 1 2 -0.329913 -2.89549 4.43004 5.13381 8.09101 0.832697
509 170 2 -1.48102 -3.6413 8.80909 0.0670676 8.24412 3.27225
498 166 2 -7.32958 -5.78187 3.41987 -8.68786 -5.77413 2.1801
176 59 2 -5.0437 -0.127169 8.1848 -7.39197 15.9652 20.6619
343 115 1 -7.12273 -3.28851 9.79262 5.13938 -8.10337 8.65372
345 115 2 -6.63593 -2.70336 9.12248 5.26495 6.79747 -4.37763
410 137 2 0.799998 -6.60786 4.34435 6.64557 6.63882 -0.0455351
409 137 1 0.0820487 -6.64473 3.61538 -6.22323 3.35487 -2.7264
402 134 2 7.33034 -5.62753 8.17349 -6.52697 -14.0977 -19.5168
400 134 1 6.53191 -5.07159 7.83345 20.9458 29.5936 32.8483
401 134 2 6.71685 -4.26724 8.4793 -17.5293 -13.1214 -18.1825
3 1 2 0.689003 -4.04839 4.98243 8.30235 19.7513 0.458062
329 110 2 0.371742 -1.78549 6.11457 -1.88457 -0.881601 -1.90834
6 2 2 3.45069 -3.94749 3.6561 -6.01151 -10.1693 0.769624
339 113 2 6.79646 -1.78982 6.32078 15.6187 -15.6651 2.55844
110 37 2 3.8651 -0.952871 6.34753 -2.01058 8.41893 -3.60575
1 1 1 0.435039 -3.04865 5.09781 -13.6774 -31.208 -2.60949
4 2 1 4.19226 -3.27602 3.80554 5.84259 3.60565 19.8907
239 80 2 4.67174 -2.4847 7.05583 2.66002 -1.49556 -3.74899
238 80 1 5.16158 -2.19169 6.19684 -12.2688 -15.0291 -8.27458
30 10 2 1.114 -4.99733 7.70309 6.2994 1.64109 0.318546
28 10 1 0.165814 -4.62889 7.62275 -14.9912 4.77551 -5.65305
29 10 2 0.100061 -3.79099 7.02469 6.76065 -8.8663 3.54558
357 119 2 2.75733 -2.52421 9.40745 16.3835 -6.44815 0.707375
356 119 2 2.03359 -2.44459 8.04917 12.7229 3.82736 -9.83755
355 119 1 2.98989 -2.57187 8.39949 -28.8203 -1.903 8.33368
185 62 2 3.23119 -4.33098 7.9403 9.2965 -23.6511 -1.05311
184 62 1 3.25394 -5.28044 7.49606 -23.079 34.3218 -32.8582
186 62 2 3.45644 -6.0362 8.13617 5.6783 -0.460782 25.0139
330 110 2 1.36804 -0.554634 6.37165 -0.0402132 6.16359 8.33511
240 80 2 4.85616 -2.8114 5.4 3.64539 16.6468 13.1075
428 143 2 2.58334 -5.46885 5.74162 -3.41846 14.8639 6.43801
587 196 2 6.30339 -4.21812 4.32301 -4.84065 8.00025 -11.1581
588 196 2 6.08163 -4.87724 5.78555 4.15361 -12.1306 -3.08406
109 37 1 3.22522 -0.143578 6.43664 -0.232083 0.143564 -1.82518
427 143 1 2.33869 -5.55011 4.74884 14.744 -20.452 18.0235
101 34 2 4.90496 -7.29151 4.67398 6.67651 6.44514 2.65372
429 143 2 3.03706 -6.31685 4.58712 -8.43646 7.66537 -17.8546
586 196 1 6.25741 -5.10879 4.79381 5.78944 -3.36194 14.9149
241 81 1 0.715375 -0.410437 9.58666 28.4638 -7.36937 10.1297
328 110 1 0.470455 -0.933933 6.68934 4.04457 -2.81974 -8.26253
243 81 2 1.65816 -0.203436 9.20329 -18.1154 2.60072 4.24813
590 197 2 -1.94137 4.66397 3.6768 -8.38366 2.67661 0.583222
332 111 2 -6.8941 4.59154 4.11733 -15.8459 -4.71315 -8.29311
275 92 2 -2.26316 0.35833 4.50893 -10.9539 13.1886 -9.93376
107 36 2 -2.52697 5.43272 9.55849 2.03608 18.077 13.1118
359 120 2 -1.59341 7.21772 8.0205 -9.27454 -10.0338 10.7271
108 36 2 -2.77296 4.34843 8.50777 -11.4722 14.6259 -10.6298
370 124 1 -7.12677 2.42744 4.72395 -41.6473 9.37683 12.3481
371 124 2 -6.26256 2.75874 5.21346 9.14307 -10.8368 -15.0525
372 124 2 -7.02443 1.64127 4.08248 14.3429 -4.63189 -6.28694
573 191 2 -4.67728 4.2209 5.18788 -9.95809 -12.9453 -1.79965
177 59 2 -5.33083 1.32667 7.45322 -2.99649 -2.99274 25.7568
175 59 1 -5.36302 0.863526 8.38728 11.46 -14.0106 -51.3221
571 191 1 -4.87212 3.23825 5.46928 56.4325 18.2133 9.10688
71 24 2 -6.04026 6.59066 8.75957 -4.49485 7.48042 3.76806
70 24 1 -5.92345 5.92713 9.53286 9.18202 -9.12475 -12.3693
106 36 1 -3.01929 5.33943 8.66047 -2.82189 -32.4726 -12.7058
572 191 2 -3.89657 2.85278 5.43919 -26.4483 -2.50886 -1.91462
72 24 2 -5.00232 5.52511 9.36966 5.86287 -0.931322 3.1623
576 192 2 -3.70051 6.23668 3.82089 -5.91238 -21.8068 -5.81318
574 192 1 -4.22522 5.33255 3.68839 2.27495 24.9955 15.3834
597 199 2 -0.108462 3.44739 6.98825 -1.50207 -5.00841 0.703339
595 199 1 -0.713602 2.61836 6.91941 -3.13332 -4.87716 -11.0011
596 199 2 -0.709082 2.03868 7.76069 1.18952 9.7762 2.5106
317 106 2 -4.30727 1.61879 9.4269 2.11546 -2.99108 -1.15466
579 193 2 -1.37856 2.31011 5.17071 -35.5428 -13.0159 -4.81242
331 111 1 -7.15488 5.15163 3.29522 34.1356 7.12584 14.79
578 193 2 -1.96243 2.77112 3.73091 -15.1059 -15.5199 6.7654
577 193 1 -2.21285 2.15586 4.53386 46.0873 30.0804 4.90106