ITEM: TIMESTEP
1500
ITEM: NUMBER OF ATOMS
648
ITEM: BOX BOUNDS pp pp pp
-7.6051507802564347e+00 7.6051507802564347e+00
-7.6051507802564347e+00 7.6051507802564347e+00
-1.6900335067236544e+01 1.6900335067236544e+01
ITEM: ATOMS id mol type x y z fx fy fz
280 94 1 -4.88343 -7.18316 -11.4196 -0.584295 -3.32938 -19.7866
281 94 2 -5.15184 -7.29366 -12.3967 -12.0743 5.26284 3.05333
388 130 1 -6.10339 -6.18633 -15.5065 11.6421 -13.9158 -14.2186
389 130 2 -5.87554 -5.26444 -15.1575 -8.39701 4.94878 0.619123
390 130 2 -6.65326 -6.13803 -16.382 -1.02872 1.69382 5.50378
76 26 1 -2.94241 -4.14111 -14.7131 14.2789 -33.8354 -2.631
78 26 2 -2.71207 -3.2361 -15.1508 -17.6428 9.70938 11.9126
369 123 2 -1.65487 -5.31607 -13.9418 -2.18757 -3.53262 -0.984047
191 64 2 -0.545371 -0.397482 -14.1207 -4.10884 1.7824 -3.86855
77 26 2 -3.57147 -4.26283 -13.9129 1.04097 22.295 -7.59367
425 142 2 -1.97206 -7.00202 -11.1172 0.870955 -1.35962 -12.2445
128 43 2 -2.40848 -0.266796 -10.1505 4.17023 -4.72005 2.58838
127 43 1 -1.74059 -1.04741 -10.2027 2.05116 0.08521 1.89522
643 215 1 -7.29184 -3.31619 -15.9509 -2.37902 10.8746 -26.132
89 30 2 -7.07245 -2.47467 -11.7852 -2.31754 20.3185 8.91301
205 69 1 -2.80373 -3.79802 -11.2159 28.8501 12.1484 0.119108
206 69 2 -2.03729 -4.00849 -11.8568 -13.3929 -11.1881 -6.01937
207 69 2 -2.26898 -3.13138 -10.6407 -19.3612 0.623444 4.17431
628 210 1 -0.0462643 -2.25201 -16.4338 8.3556 7.90576 4.55915
282 94 2 -3.93353 -7.56882 -11.4555 7.90233 0.67395 16.2022
368 123 2 -2.05127 -6.86004 -13.5207 1.00856 -1.7809 -6.12628
526 176 1 -4.4648 -1.03809 -12.8699 -1.09084 -9.5914 4.57473
527 176 2 -4.42119 -0.479614 -11.9999 0.539623 10.1525 -6.2447
528 176 2 -4.9805 -1.85697 -12.5356 0.717075 -0.490079 -3.35614
367 123 1 -1.42047 -6.09123 -13.3071 3.74871 7.35788 5.89347
295 99 1 -6.11897 -1.182 -15.1032 -6.37277 13.3554 -17.8926
296 99 2 -5.3184 -1.05749 -14.4708 0.0486015 4.85803 6.42198
297 99 2 -6.29549 -0.317341 -15.6468 7.60711 -5.72754 11.4097
448 150 1 -5.56021 -3.08619 -11.2432 3.28592 -6.14486 6.44294
449 150 2 -4.61383 -3.48387 -11.3378 3.87648 1.57226 -2.74408
450 150 2 -5.80282 -3.2713 -10.2646 -5.96726 1.30419 1.01076
75 25 2 -0.0030386 -1.02601 -11.2194 0.436475 -5.20541 9.18836
114 38 2 -1.77927 -1.99404 -16.4416 -4.82958 3.06807 5.74563
200 67 2 -3.78814 -6.25889 -16.7002 -6.38326 -1.10304 -4.61952
644 215 2 -6.88848 -2.38563 -15.705 8.01445 -3.25457 6.46864
112 38 1 -2.71973 -1.7749 -16.0462 14.2788 -1.05074 -4.64049
113 38 2 -2.54183 -1.10503 -15.2842 -3.23179 0.28784 -1.69848
90 30 2 7.50777 -2.51331 -13.129 -10.268 14.1318 -10.0205
353 118 2 2.33757 -1.23831 -14.1824 -1.63354 -5.32788 1.03714
169 57 1 3.75086 -5.45113 -12.7574 3.71342 3.30303 14.1232
72 24 2 4.4605 -6.00878 -14.4894 1.27665 4.35217 -4.90675
170 57 2 4.23989 -6.18006 -12.2126 -6.41513 -8.91338 -3.44167
171 57 2 4.15734 -4.59448 -12.3147 -3.50109 0.718141 -13.0328
323 108 2 4.21214 -0.986879 -14.7516 9.07624 10.3918 11.4564
352 118 1 1.46468 -1.80427 -14.1299 -10.8076 7.47554 10.9123
354 118 2 1.16312 -1.73983 -13.1357 4.67222 -5.10776 -7.19011
154 52 1 5.35892 -1.65535 -15.8843 -14.2057 -1.10279 4.76709
155 52 2 4.73614 -2.39473 -16.2304 9.16843 -0.45598 -2.83768
156 52 2 6.28569 -2.05677 -15.7325 2.03164 -0.0358069 -2.89237
88 30 1 7.38795 -1.954 -12.2841 12.6089 -40.8692 2.81849
322 108 1 3.74916 -0.505706 -13.9511 1.10215 0.000941349 -0.369018
324 108 2 4.42371 -0.0284232 -13.323 3.46436 -6.34677 -7.89249
55 19 1 2.82221 -4.41422 -15.2742 -28.131 9.31965 5.9104
56 19 2 1.91539 -3.94471 -15.4421 15.5713 -2.75389 -2.76081
269 90 2 2.10516 -5.46696 -11.9595 -1.16922 -4.06866 -3.86428
304 102 1 4.67517 -7.34822 -10.9398 -9.87737 6.24555 -1.3355
305 102 2 5.45325 -6.83862 -10.4829 1.61437 -9.13743 1.07674
270 90 2 0.522823 -5.95489 -12.3135 0.195271 3.23024 2.70184
268 90 1 1.1452 -5.55987 -11.5967 -1.23043 -6.13795 -10.0441
235 79 1 4.80469 -3.23313 -11.8186 8.4367 0.901434 10.8335
236 79 2 4.2521 -2.42374 -12.0963 0.210378 4.75556 -2.47531
237 79 2 5.8087 -3.01461 -11.9415 -6.94376 3.29683 -2.19998
57 19 2 2.76949 -4.69226 -14.2845 12.3052 -2.4295 -4.72375
630 210 2 0.519681 -2.07851 -15.5862 -6.03824 -3.89345 2.27641
70 24 1 5.02869 -6.50913 -15.1839 -1.71602 -9.15049 17.4224
71 24 2 4.75672 -7.48637 -15.0076 -0.426828 1.84378 -3.99712
621 207 2 6.49984 -0.380068 -11.9888 7.05169 2.54971 -7.52282
329 110 2 7.26183 -4.07908 -14.7683 5.60435 -12.9908 -8.08593
150 50 2 7.59143 -6.25557 -10.3965 7.54335 -6.02388 6.73045
328 110 1 7.02561 -4.85647 -14.1221 -19.4423 1.99754 22.4919
330 110 2 6.35782 -5.52081 -14.5456 7.06844 2.99461 -1.57306
362 121 2 1.01921 -4.55218 -10.4539 1.61934 7.86125 8.73354
73 25 1 0.868526 -1.5502 -11.3688 -1.67913 -0.291564 -17.0319
74 25 2 0.902575 -2.36868 -10.7474 -0.926329 3.81098 5.53291
299 100 2 4.11366 -4.16754 -16.3289 7.59725 -16.2908 -4.72722
108 36 2 2.50471 -5.67251 -16.8167 8.43845 2.39255 0.733338
300 100 2 5.71926 -4.66968 -16.7121 -3.29257 -5.5254 5.10108
198 66 2 -3.09898 5.83198 -12.4763 -1.40302 -7.11945 1.63972
531 177 2 -4.1744 1.28095 -10.3817 -4.68497 -2.2792 4.24129
424 142 1 -2.36121 7.27821 -10.9609 4.57705 6.91194 4.9037
529 177 1 -4.70128 0.449161 -10.6644 6.1885 -4.7197 3.10834
530 177 2 -5.60538 0.36147 -10.1929 -4.68253 7.61495 -0.713034
584 195 2 -1.85325 6.83277 -15.5909 -3.80399 3.29145 -3.03034
585 195 2 -3.08867 7.58624 -16.3935 -1.97151 -5.19609 -3.00295
583 195 1 -2.71966 7.38439 -15.4603 13.443 -7.06884 10.3433
190 64 1 -1.38461 0.134082 -14.3663 1.73873 -8.61403 -3.05154
192 64 2 -1.69764 0.598479 -13.5023 3.37846 2.79421 1.12311
639 213 2 -1.51541 2.33287 -16.4425 1.53616 -0.199712 -1.19518
196 66 1 -3.44801 5.54348 -13.3918 9.18286 17.272 -8.55552
447 149 2 -4.78406 3.87508 -10.1764 1.74433 9.37588 2.16802
187 63 1 -6.20958 6.21684 -16.5065 -7.60289 -9.3017 8.14684
445 149 1 -4.0627 4.42008 -10.6694 -0.359522 -3.0845 -0.60402
217 73 1 -4.69487 3.31084 -15.2137 12.0531 16.9364 6.88051
218 73 2 -4.55178 4.26231 -14.859 -3.09314 -0.919686 7.20749
219 73 2 -5.06456 2.75013 -14.4387 -0.895379 4.55568 -1.15754
283 95 1 -6.09071 4.14124 -12.803 4.21126 -2.46017 8.66215
484 162 1 -1.05871 1.79395 -12.2251 -3.63203 12.6805 4.6015
486 162 2 -1.72868 2.56037 -12.3741 7.49808 -7.44578 2.31345
485 162 2 -0.437554 2.06442 -11.4446 -8.26555 0.945346 -3.46728
285 95 2 -5.19097 4.27737 -12.31 -7.18748 2.97029 -3.48103
188 63 2 -6.01096 7.21325 -16.3563 2.68548 -3.71063 3.16177
600 200 2 -3.42899 4.02249 -16.325 3.56131 4.29918 -1.52499
284 95 2 -6.66542 4.99296 -12.7666 1.54645 -4.63743 -3.132
588 196 2 -7.09872 2.75299 -13.3151 5.96223 7.0084 0.631932
28 10 1 -0.393051 5.81133 -16.1763 -8.31766 0.552738 -1.13004
391 131 1 -5.64948 1.54223 -16.7444 3.47389 -7.14757 -14.7785
519 173 2 -7.30314 4.71967 -15.9776 0.352735 -6.8203 14.7224
197 66 2 -3.14114 6.25071 -14.0828 -7.82314 -8.90317 0.0726134
637 213 1 -2.15888 1.55471 -16.6162 4.40086 -3.09507 0.49261
638 213 2 -1.96058 0.912128 -15.8347 -1.69495 -0.771724 2.10957
599 200 2 -1.90948 4.77812 -16.5712 -7.31356 4.79963 0.614082
393 131 2 -5.39459 2.42837 -16.261 -6.43588 -6.2236 6.83752
334 112 1 0.134076 2.85611 -15.4892 -5.39204 7.30973 -8.85239
335 112 2 0.00168811 2.23307 -14.7022 2.13351 -4.45375 7.99409
336 112 2 1.05882 3.28526 -15.5249 0.952454 -3.5908 -1.42918
306 102 2 4.62701 6.86053 -10.7385 12.6023 2.97647 0.746393
516 172 2 1.78128 6.46597 -10.846 -9.27807 -6.07811 -5.64514
26 9 2 3.154 5.94141 -15.1752 -5.04491 -4.49187 3.0644
504 168 2 6.54249 5.64648 -11.26 -2.92495 -7.13061 -5.29545
292 98 1 6.90628 5.8539 -13.2876 0.826763 7.71262 2.52866
293 98 2 6.61053 5.05604 -13.866 4.01965 6.06545 -2.39595
294 98 2 6.99838 6.71224 -13.8492 -1.38941 -11.9448 3.22253
16 6 1 2.33213 4.53634 -16.4288 1.45394 1.85595 2.45283
17 6 2 2.85168 3.7961 -15.9053 7.69382 2.82362 -7.73413
619 207 1 6.02675 0.459402 -12.3513 -5.62164 6.47778 -10.8344
620 207 2 6.66955 0.993571 -12.9972 -6.94981 -8.83953 15.7176
624 208 2 0.874932 5.32866 -13.4456 -0.0371441 -8.35148 3.40981
622 208 1 1.35068 4.66515 -12.8297 0.957069 16.2831 -5.79801
25 9 1 3.57217 6.40165 -14.3648 7.85729 8.35772 -2.74669
27 9 2 3.1269 6.19884 -13.4727 -1.48385 -5.41 -4.49936
97 33 1 3.56529 2.61867 -15.0865 2.91691 -13.8862 13.907
98 33 2 4.33446 1.94421 -15.1225 -0.999748 8.0616 -9.59592
99 33 2 3.17708 2.37815 -14.1549 -4.93108 4.14414 -1.31111
542 181 2 5.65498 3.40863 -10.4433 0.611607 4.48666 4.10717
543 181 2 5.37072 1.77766 -10.2033 2.80971 -4.70167 -1.66766
586 196 1 7.5803 2.04358 -13.8279 -7.86519 -10.115 -0.259377
587 196 2 7.19702 2.47299 -14.6748 6.97199 8.86688 -1.21519
623 208 2 1.77687 3.89519 -13.3406 -0.649639 -3.76634 4.9443
379 127 1 2.3861 1.84586 -12.7586 -10.7519 -8.97821 10.3982
380 127 2 2.10628 1.95426 -11.7818 4.86248 12.1927 -2.81357
502 168 1 6.26027 5.12281 -10.4223 8.0037 17.4011 0.163466
381 127 2 2.26894 0.837845 -12.8677 7.14417 -0.548203 -10.4683
29 10 2 0.297412 5.07748 -16.0116 1.96339 0.999391 -3.19365
517 173 1 7.15842 4.04563 -15.7304 2.86841 18.7147 -23.8671
518 173 2 6.59642 4.16879 -16.5886 -6.97389 -6.38414 6.00701
455 152 2 -5.47822 -7.13365 -8.13887 4.31927 -1.24936 -10.2178
232 78 1 -6.58338 -3.84744 -8.57995 5.83712 -14.6958 -4.35722
233 78 2 -6.09101 -3.85664 -7.68365 -0.828207 6.04647 1.80752
234 78 2 -6.77424 -4.83327 -8.80327 -4.32552 9.60775 0.812972
81 27 2 -2.89581 -2.71422 -7.94022 7.39894 0.898528 0.0141161
79 27 1 -1.91025 -2.76175 -8.2129 -9.14642 -8.52169 2.55181
80 27 2 -1.56444 -3.73963 -8.12721 1.32176 7.26936 0.123279
277 93 1 -2.50196 -2.88523 -4.36032 18.3899 21.6434 -8.91403
470 157 2 -2.82179 -7.24464 -7.653 -1.60928 -9.08196 -0.493439
129 43 2 -1.76462 -1.6364 -9.33771 -1.6448 5.36803 -6.36041
22 8 1 -4.94057 -6.14315 -6.17656 9.64095 -2.962 -2.21493
24 8 2 -5.42997 -6.7807 -5.54239 -6.96047 -2.26163 0.331832
23 8 2 -3.98864 -6.00338 -5.77541 -5.73562 1.71735 -3.90768
240 80 2 -1.50877 -5.70253 -5.35164 4.85002 1.80493 2.86572
238 80 1 -2.47411 -5.91056 -5.08724 -6.374 -2.82164 2.49421
239 80 2 -2.57922 -5.84949 -4.0621 0.916166 -1.64905 -4.56993
469 157 1 -2.05876 -7.47395 -8.29409 -2.56885 33.884 7.68048
471 157 2 -1.56369 -6.54689 -8.33929 -0.202883 -18.7334 -0.717538
279 93 2 -1.57209 -3.28727 -4.22493 -5.8045 -7.88986 0.53919
551 184 2 -3.8928 -3.15241 -3.65152 2.96241 6.31762 11.8326
464 155 2 -6.71121 -1.73395 -5.77796 -8.30384 5.54281 1.83528
601 201 1 -0.64643 -5.12591 -7.98138 -2.59069 -5.52558 -10.4536
141 47 2 -0.0249929 -2.70306 -6.36582 0.651402 9.39043 -12.6655
602 201 2 -0.213391 -5.37166 -7.09267 4.32562 1.7535 11.3838
456 152 2 -5.24539 -7.48116 -9.83686 1.02605 5.41436 -5.24534
121 41 1 -4.05494 -0.630347 -7.89441 14.4747 -14.0164 11.3305
122 41 2 -4.60189 -0.850477 -8.72049 1.97522 12.8288 -8.17796
278 93 2 -2.3071 -1.88007 -4.45491 -4.76542 -6.7644 -0.802052
490 164 1 -5.1271 -2.13494 -6.0429 -2.35327 -16.4085 12.1147
491 164 2 -4.76698 -2.33912 -5.11451 -1.16408 -1.92506 0.681835
492 164 2 -4.3536 -1.80664 -6.63448 -8.25073 11.6625 -4.78316
161 54 2 -0.366432 -0.13274 -8.81587 4.91149 -1.01255 -5.70554
632 211 2 -7.4054 -6.50581 -6.41867 -11.9101 -0.397433 4.30437
259 87 1 4.11445 -4.17163 -9.22135 -6.65209 13.4542 -5.1804
260 87 2 4.43625 -3.71889 -10.0944 -2.68525 -14.3885 1.30813
261 87 2 4.56006 -5.05314 -8.97637 4.69896 0.704637 -5.2065
148 50 1 6.84395 -6.0853 -9.72673 -18.2021 3.4275 -5.86735
149 50 2 6.96643 -6.40306 -8.74217 7.83086 1.86863 -3.53255
312 104 2 0.23326 -4.82193 -4.30343 -0.930095 0.710232 7.50581
11 4 2 5.71091 -2.8186 -9.23847 -14.6716 7.73832 3.91905
361 121 1 1.12783 -3.84873 -9.67469 1.65762 -8.38825 -7.64578
363 121 2 2.12938 -3.84095 -9.45492 1.64366 2.16269 5.55639
603 201 2 0.101952 -4.75866 -8.59613 -1.61035 4.59453 -0.968362
483 161 2 4.06752 -2.61295 -5.26989 9.13749 -8.35484 16.0391
10 4 1 6.39907 -2.27394 -8.73534 3.41999 -10.7113 -6.7696
12 4 2 7.18336 -2.93437 -8.77391 15.1667 5.54201 11.0772
481 161 1 5.09216 -2.72514 -5.3944 -19.0872 5.2264 -20.6163
465 155 2 6.80879 -1.98095 -5.82663 10.0152 -1.29604 8.12851
482 161 2 5.21677 -2.47761 -6.37269 3.13938 -1.65083 -6.06428
139 47 1 0.508149 -1.85389 -6.16665 9.88826 -5.53988 17.9587
310 104 1 0.270703 -5.1369 -5.27647 -4.95098 -0.798994 -7.39992
311 104 2 1.21253 -5.49949 -5.47359 2.65796 -0.922361 -3.97201
509 170 2 2.20403 -7.30191 -5.43839 0.533755 -0.54379 -2.71362
510 170 2 3.42735 -6.21259 -5.77828 2.52843 5.6888 -7.24864
508 170 1 2.51392 -6.58703 -6.09049 -4.33344 -3.59082 11.3813
463 155 1 7.55905 -1.33238 -5.55962 -2.2255 2.52926 -7.73408
83 28 2 1.84232 -2.56188 -4.93422 0.954415 0.476685 -4.64693
633 211 2 6.09201 -6.35723 -6.5988 13.0018 5.74952 4.02316
548 183 2 7.4396 -0.739649 -9.37197 -6.51997 0.517503 -1.04343
179 60 2 2.69985 -0.374433 -7.85908 -10.4221 0.964838 -5.61464
140 47 2 0.657962 -1.19243 -6.93731 -8.55355 -6.25813 -5.23192
82 28 1 2.51234 -2.82494 -4.20177 -12.8826 9.41112 -4.18288
592 198 1 5.63778 -0.449741 -3.68953 -15.442 -4.3309 -0.470989
593 198 2 4.90932 -1.13605 -3.91631 7.79772 3.38591 4.6671
594 198 2 6.32606 -0.495008 -4.44095 10.0963 -4.19405 5.36974
631 211 1 7.01556 -6.38004 -7.06937 -0.441106 -3.17529 -9.31559
118 40 1 5.90004 -7.02106 -3.49324 -5.18141 7.46195 11.0974
478 160 1 4.89966 -5.46487 -5.48448 5.72462 9.85311 4.76677
479 160 2 5.09957 -4.43569 -5.47771 -5.4265 -15.4416 3.89921
480 160 2 5.33901 -5.89302 -4.64617 0.296743 -0.0747634 -5.95182
426 142 2 -2.22158 7.19667 -9.94181 -2.74789 -6.25654 1.13027
446 149 2 -3.63298 5.16871 -10.1212 -7.31641 -7.46734 -0.0949259
181 61 1 -6.53437 3.27549 -9.33009 11.2348 -14.2247 13.8591
182 61 2 -7.14617 2.61101 -9.79292 -8.01186 2.31137 -9.41612
454 152 1 -5.62593 7.42959 -8.92632 -8.34815 -4.31302 20.9215
183 61 2 -6.10032 2.63788 -8.62917 1.93593 10.6468 -0.12742
210 70 2 -6.545 6.19598 -8.1829 -0.612876 8.64545 7.0676
618 206 2 -4.4965 3.41774 -4.44463 -7.58256 5.76085 -5.71245
538 180 1 -0.482218 5.59798 -8.28446 11.3471 -26.5136 -2.55109
540 180 2 -1.19876 6.28458 -8.04223 1.66949 17.6152 -5.52324
208 70 1 -7.05258 5.55586 -7.54755 -3.24624 10.9727 -7.47633
209 70 2 -6.73185 4.65794 -7.88727 -0.775504 -15.5773 7.22007e-05
616 206 1 -5.11845 3.7504 -5.20415 1.85156 -0.316708 6.19873
617 206 2 -6.00218 4.17183 -4.86651 10.3376 -6.55231 2.31167
123 41 2 -3.49049 0.226196 -7.91649 -5.64806 4.00962 -13.4202
442 148 1 -5.64832 1.74134 -7.25118 -11.9853 3.50295 -3.89452
443 148 2 -5.68509 0.828647 -6.80468 4.10699 -3.27316 -1.65167
444 148 2 -6.13203 2.41294 -6.65242 8.44895 1.42836 4.24982
94 32 1 -0.988931 0.881166 -4.04601 -20.8384 1.74792 6.68194
95 32 2 -0.762937 1.10343 -5.03133 17.3016 -5.68158 8.5796
96 32 2 -0.295478 0.338241 -3.48616 -1.01178 6.24885 -13.0648
412 138 1 -2.45997 1.63898 -9.04027 5.97093 19.1865 -1.01507
413 138 2 -1.92373 2.13582 -9.76559 1.07837 -10.5372 0.584366
414 138 2 -2.30237 2.32027 -8.28064 -9.37854 -10.2147 6.5851
562 188 1 -2.3775 3.56052 -6.79939 8.85222 -24.6805 -4.31381
563 188 2 -2.04707 4.48936 -7.06884 -9.4724 2.48491 10.0277
564 188 2 -3.10684 3.40991 -6.08465 0.0129227 20.1561 -8.0748
307 103 1 -7.52546 3.91446 -3.77657 15.1806 4.66477 -4.33725
341 114 2 -7.54052 7.05717 -4.30077 -1.77956 2.68059 -3.40459
340 114 1 -6.91357 7.32998 -5.06254 6.82533 -1.80457 -9.91544
342 114 2 -7.08048 6.77641 -5.91816 0.661602 -3.22672 8.99174
547 183 1 -7.53317 0.254628 -9.333 10.5263 -1.77389 3.96334
604 202 1 -0.222847 3.13222 -9.85398 0.868647 8.27204 -0.641384
606 202 2 -0.376848 4.03733 -9.39866 -12.7103 0.964946 1.78945
321 107 2 -0.87378 2.64563 -6.16335 6.11787 12.1879 -8.83025
319 107 1 -0.0511725 2.04805 -6.3001 9.4219 -17.428 -4.4976
104 35 2 -2.38625 2.18371 -3.75347 -1.44843 3.28105 2.19409
541 181 1 5.10953 2.71662 -9.91892 -12.3905 -0.593332 -3.598
503 168 2 7.03968 5.18208 -9.75965 -3.01646 -6.46151 -2.39682
477 159 2 2.37693 4.66785 -9.75536 -8.31002 6.2306 5.12409
515 172 2 2.85827 7.12319 -9.86687 4.37943 6.09052 7.74448
224 75 2 4.98681 4.97529 -8.66959 3.50771 -6.34751 8.0879
133 45 1 5.72531 2.67572 -5.04653 -16.9432 13.6722 -6.67275
134 45 2 4.71065 2.62015 -5.00445 0.301584 2.69853 14.146
225 75 2 6.01515 5.41646 -7.42378 -2.38304 -6.61259 -5.97184
223 75 1 5.08097 5.0511 -7.64886 10.6747 14.5773 -4.21801
605 202 2 0.796328 3.11208 -9.73333 8.69011 -7.07529 -0.931868
539 180 2 0.428286 5.9981 -8.53616 -6.61333 3.48126 1.52461
514 172 1 2.19977 6.35595 -9.9312 2.31318 1.75616 -3.87518
69 23 2 6.3766 0.3716 -6.11931 11.7396 9.10931 4.06189
308 103 2 6.90799 3.5243 -4.33953 -1.82419 -8.46318 -0.88149
549 183 2 7.43449 0.560947 -8.38526 -3.94801 4.59287 -2.47666
135 45 2 5.82164 2.36662 -6.02084 16.2632 -9.22542 -3.83763
67 23 1 6.13463 0.916088 -6.94508 6.9962 -25.495 -2.58884
466 156 1 4.03382 5.18024 -5.10886 5.99189 21.4699 -15.192
468 156 2 4.91366 5.08994 -5.62099 1.56776 -21.9891 6.56214
467 156 2 3.76281 5.96889 -5.6971 -15.9494 -3.91499 10.7661
162 54 2 0.390462 0.943094 -7.85289 1.68374 3.8265 3.80468
230 77 2 2.4217 3.70111 -7.54503 5.61459 5.49812 -9.00388
160 54 1 0.549165 0.121578 -8.44057 -6.82829 -4.17847 8.57268
178 60 1 3.52771 0.180148 -7.69342 10.0525 -0.332495 5.59507
180 60 2 3.28891 1.16746 -7.58766 -1.03921 -1.25766 -1.38598
229 77 1 2.39854 3.23907 -6.63811 -11.6245 -19.2463 14.1947
231 77 2 2.73795 3.79049 -5.85129 7.446 10.5824 -4.86473
476 159 2 3.2991 3.3457 -9.72073 -1.32043 -8.32264 8.06477
475 159 1 2.37008 3.69113 -9.43022 17.118 -1.1646 -10.47
68 23 2 5.52835 0.228863 -7.40126 -12.1343 13.7153 -13.2366
320 107 2 0.88639 2.50307 -6.38314 -13.8197 4.78816 1.63455
349 117 1 -0.545857 -4.44906 -2.66683 -2.56672 16.1138 -6.90324
351 117 2 -1.489 -4.83918 -2.57288 -3.48172 -9.1565 0.666772
613 205 1 -6.6691 -2.58279 -1.30385 -7.60135 7.2064 7.10695
614 205 2 -5.8987 -2.71385 -1.98332 -5.83381 -2.69572 -1.71252
550 184 1 -4.60155 -3.12142 -2.88425 0.114976 -11.471 -4.32997
552 184 2 -4.55849 -4.06889 -2.50329 -0.974177 2.48671 2.57304
339 113 2 -0.549068 -1.78873 -1.33149 -1.60287 1.78532 -0.469873
350 117 2 -0.679299 -3.55067 -2.1335 4.07582 -16.3508 2.50845
525 175 2 -4.57115 -2.22269 0.70427 6.38805 -4.82536 -0.300473
385 129 1 -5.58345 -7.3202 -0.22984 18.8339 17.6042 8.19326
338 113 2 -1.72571 -2.15178 -0.256033 -12.3354 -6.22046 -1.29654
615 205 2 -7.46363 -3.20517 -1.48579 4.31548 -5.10059 -2.3825
337 113 1 -1.19898 -2.52538 -1.04879 15.3876 15.1449 -1.61327
523 175 1 -3.7523 -2.19427 0.088215 -2.7308 5.77657 -6.94766
524 175 2 -4.00016 -2.48077 -0.864396 1.57604 2.00675 7.68528
45 15 2 -2.32125 -6.22137 -1.54573 -10.8131 -0.507911 0.00358573
386 129 2 -6.51127 -7.07072 0.104223 -0.281773 -4.23946 -5.66569
409 137 1 -3.53974 -5.893 0.853565 -10.6208 -3.08978 5.9981
410 137 2 -4.35464 -6.48633 0.611978 5.15359 -2.41041 -7.4411
411 137 2 -3.96109 -5.05616 1.25651 3.70099 6.0296 -1.24299
568 190 1 -1.26499 -7.22688 -0.0164245 -21.9993 3.68892 -1.56526
570 190 2 -2.10141 -6.86623 0.489337 11.5961 5.36577 -3.26444
43 15 1 -2.93241 -5.84502 -2.29164 6.55759 0.822794 -6.83711
44 15 2 -3.83167 -6.33384 -2.32795 5.61774 -2.66014 8.06424
37 13 1 -1.943 -0.0827267 2.8831 4.813 -0.432326 3.6702
38 13 2 -2.62915 -0.70448 3.30037 -3.21927 -1.46304 -0.679117
39 13 2 -1.11929 -0.61825 2.61344 -0.965127 1.37213 -0.545775
545 182 2 -3.99719 -0.686602 -2.89651 -0.263137 -1.62637 1.83823
546 182 2 -4.99319 -0.0184195 -1.735 3.16332 -1.57999 -2.85011
92 31 2 -6.59074 -0.0769494 2.72771 -2.23517 4.03072 -3.94832
574 192 1 -5.24539 -3.62801 2.02726 3.93535 -7.81289 1.07042
575 192 2 -6.00283 -3.74601 1.35287 -2.96975 3.40525 2.18662
576 192 2 -5.58574 -3.29822 2.95189 -2.23073 3.83248 -2.45087
364 122 1 -1.73657 -3.9947 2.7742 -0.956817 -0.599119 12.5769
365 122 2 -1.33214 -3.96625 1.84842 -3.67491 -2.99591 -7.03007
366 122 2 -2.69544 -4.34649 2.79953 5.95038 2.82025 -5.76085
534 178 2 -6.24875 -5.39972 2.20888 -10.1113 -0.800481 -2.93195
532 178 1 -7.05915 -5.70493 1.65251 3.0708 -1.84274 6.90906
157 53 1 6.89263 -0.0791037 -1.25739 -8.05863 -7.49552 3.76697
158 53 2 7.30905 -0.996876 -1.08111 8.46398 0.7128 0.44219
159 53 2 6.15756 -0.290443 -1.96222 9.14054 11.677 -1.52097
84 28 2 2.0903 -2.51001 -3.33175 9.12964 -6.03244 -1.81219
537 179 2 6.21321 -5.62618 -0.919309 13.0525 0.294019 1.13071
535 179 1 6.41444 -4.89804 -1.62455 -5.42324 -5.49409 3.42445
120 40 2 6.37892 -6.48482 -2.75801 7.43405 1.40764 -7.52291
151 51 1 2.3689 -0.55234 3.25404 8.91335 8.62614 -12.398
152 51 2 3.21689 -0.537829 2.67399 -4.44657 -8.1382 5.85861
536 179 2 5.50958 -4.41355 -1.68311 7.51578 11.8174 -0.537494
247 83 1 5.85139 -3.97004 1.72953 12.0155 2.32409 7.07435
119 40 2 4.96461 -7.06492 -3.07699 -0.780286 -7.12687 1.21233
248 83 2 6.01245 -2.98628 1.96284 -6.56748 -2.8341 -1.02075
487 163 1 3.98799 -3.67737 -1.2474 -7.98213 -5.86911 0.146162
488 163 2 3.87977 -4.61649 -1.64083 -2.76189 -1.39222 2.12499
86 29 2 4.43782 -6.67246 -0.542123 -11.7777 -4.0926 1.65755
595 199 1 5.29853 -0.741217 2.94698 3.69508 6.15282 -19.0782
597 199 2 6.26298 -0.480482 2.7094 -8.4037 -0.566038 3.1337
489 163 2 3.08951 -3.39236 -0.854591 5.34927 5.30725 -0.321647
373 125 1 1.80795 -1.42494 0.0158383 -13.4515 -1.54912 15.6898
374 125 2 1.80664 -1.9211 0.905364 8.74912 -4.55532 -3.83271
375 125 2 1.20083 -0.617664 0.277037 7.54325 -0.512775 -9.22009
250 84 1 0.638423 -0.412432 -2.32487 -1.93466 -10.4973 -4.79865
251 84 2 1.34683 -1.13577 -2.187 0.367999 8.96702 6.64324
437 146 2 0.48295 -5.64563 -1.90798 1.19888 -0.345197 10.2237
436 146 1 1.06596 -6.2053 -1.26238 7.46821 -5.4392 -10.3487
438 146 2 0.476951 -6.88659 -0.756756 -2.54816 10.5771 0.248668
249 83 2 4.99626 -4.08693 1.1962 -1.45368 1.66842 -2.05993
533 178 2 7.29121 -5.17164 1.87066 2.55181 1.49653 -3.25237
87 29 2 3.0101 -6.43868 -1.58513 -11.2839 -6.78428 20.1404
85 29 1 4.02441 -6.49889 -1.4678 8.89301 7.65968 -22.9829
115 39 1 6.27441 -6.99148 0.221465 -5.77388 -8.42673 -12.8774
117 39 2 7.16322 -6.85953 0.71712 -7.33486 8.34236 8.34052
309 103 2 -7.10533 3.14961 -3.23813 -6.81994 4.09682 1.44472
387 129 2 -5.48159 7.08928 -0.884154 -11.9744 -5.62787 1.56332
400 134 1 -2.83699 1.91691 0.694523 -7.31755 -8.00205 -10.087
401 134 2 -2.73232 0.913234 0.870103 5.03444 3.56745 6.70928
402 134 2 -3.69193 2.03079 0.152172 2.54046 1.66836 3.49563
569 190 2 -1.40397 6.97106 -0.124035 12.7481 -1.81061 1.03057
172 58 1 -2.92294 5.27339 -2.18296 6.23774 -2.77217 -4.73531
174 58 2 -2.90894 4.29435 -2.52768 7.27397 7.62055 -5.46021
418 140 1 -5.31915 5.7402 -1.63151 -24.3168 -15.7797 -2.30795
419 140 2 -4.31495 5.5171 -1.84771 -1.58526 5.98811 -2.97148
103 35 1 -3.07804 2.8494 -3.36429 3.28471 -9.49197 3.52836
105 35 2 -3.41258 2.39496 -2.51161 -2.05208 -5.88221 -5.10904
173 58 2 -2.0726 5.52537 -1.65511 0.931438 -9.30628 -0.291751
429 143 2 -5.06574 3.08652 2.77455 22.167 -6.24839 5.17072
544 182 1 -4.16529 0.125792 -2.31371 -5.49265 5.8174 4.48706
371 124 2 -0.255765 4.5883 -0.48813 -10.1087 8.46673 9.57562
372 124 2 -1.67892 5.01012 0.393043 13.6135 -7.61628 3.96679
565 189 1 -2.12044 4.04256 2.08932 3.55314 -10.4686 4.99379
109 37 1 -5.16071 4.73789 1.3207 -11.7267 -10.2968 2.6575
111 37 2 -4.33789 5.25332 1.61665 4.8134 1.39693 1.57405
566 189 2 -2.38035 3.15345 1.61658 -2.90439 5.80723 -7.13335
370 124 1 -1.00007 5.2856 -0.337603 -1.6452 -4.66392 -3.65565
110 37 2 -5.44746 5.00375 0.381036 4.81089 5.6267 -5.71317
567 189 2 -1.75159 3.70011 2.98324 -0.533873 7.58672 0.0413882
194 65 2 -0.00457785 1.57301 0.444971 -2.48567 -4.01774 1.29712
420 140 2 -5.9267 5.15687 -2.22368 5.23181 7.70225 4.56243
313 105 1 -7.59217 0.69974 1.55882 1.95461 -17.5432 5.99939
176 59 2 -6.91934 4.1441 1.8549 -5.37376 -3.64404 12.799
262 88 1 7.5713 2.68195 -1.21721 2.47593 1.8636 8.629
263 88 2 7.51099 1.66049 -1.12978 -4.51512 -5.10943 -4.18654
264 88 2 6.72387 3.02346 -1.67963 -2.66581 2.33331 -0.731722
357 119 2 5.10001 6.68525 3.32389 -6.86733 2.66711 7.06076
193 65 1 0.312526 0.643468 0.727878 8.76497 9.85127 9.25231
195 65 2 0.805084 0.8215 1.62143 -4.81852 -3.6607 -9.51199
33 11 2 5.71593 4.53768 -3.27578 10.5411 -0.556272 1.99467
314 105 2 7.54766 1.65761 1.91188 -5.58395 5.83894 -7.2898
19 7 1 5.81225 5.54496 0.260965 13.9105 4.94057 -2.82155
20 7 2 6.01363 5.11097 -0.648484 -10.9941 -0.805136 0.051295
21 7 2 6.38304 5.10212 0.983133 -4.56876 -5.58424 1.1938
315 105 2 7.09046 0.470856 0.70974 -0.38883 8.54442 -1.76143
252 84 2 0.65496 0.207048 -1.51773 1.17448 2.79642 3.07839
32 11 2 4.27388 4.431 -2.61327 8.3917 -1.07293 9.64695
31 11 1 5.27083 4.36647 -2.37825 -16.8108 1.37526 -3.22415
175 59 1 7.45027 3.56173 1.69961 15.5733 6.19426 -22.2171
177 59 2 7.59907 3.29125 0.71734 -9.01047 -5.41142 1.07054
577 193 1 1.54304 3.13303 2.04439 0.013335 -4.22921 -8.52789
579 193 2 1.11254 3.92599 2.52022 3.41907 -3.59004 0.429623
116 39 2 6.05159 7.20659 0.146933 -0.521835 1.42317 4.89086
257 86 2 6.03201 2.93467 2.84794 1.5139 4.08999 2.94702
578 193 2 2.2213 2.71587 2.69267 -3.08676 1.39354 0.870128
91 31 1 -5.95719 -0.138754 3.53215 1.53909 -1.82211 4.33262
186 62 2 -0.939133 -5.67239 3.9698 -11.1285 -1.61516 7.10206
185 62 2 -2.02097 -6.07126 5.26332 3.71521 6.07882 -7.38095
520 174 1 -5.76216 -3.09652 7.3282 20.8639 -2.36789 23.6432
521 174 2 -5.07085 -3.55332 7.95712 -6.52189 1.66092 -17.5133
522 174 2 -6.30096 -2.54028 8.00206 -13.9159 1.35641 -12.4225
13 5 1 -2.88146 -7.0499 9.50288 -4.32096 -0.959278 1.95736
15 5 2 -1.88354 -7.15613 9.26158 -6.16216 13.4088 0.197351
286 96 1 -1.13704 -2.10108 9.52367 16.1948 -4.36269 -0.0978121
288 96 2 -0.316875 -2.55053 9.9258 -4.02283 0.795165 -4.96558
14 5 2 -3.23674 -6.07392 9.5146 12.3865 -9.02185 -3.37701
184 62 1 -1.34124 -6.39918 4.57861 5.80069 -5.49385 4.11533
457 153 1 -6.68814 -7.31408 8.52362 3.54635 -9.44227 -14.2829
459 153 2 -6.03594 -6.55636 8.34348 -1.3702 2.53663 4.90543
511 171 1 -6.2517 -2.68379 4.38489 4.80283 19.9527 4.35384
512 171 2 -5.78158 -2.74077 5.28733 2.64338 -15.4649 11.1317
513 171 2 -6.34428 -1.6377 4.31414 5.7636 -15.282 -17.5488
290 97 2 -2.9083 -3.59064 9.15057 -12.7283 0.329728 7.46134
289 97 1 -3.82928 -4.02241 9.34264 3.02713 7.70864 -4.5033
291 97 2 -4.4319 -3.4082 9.93782 10.0706 -7.19785 -1.6231
165 55 2 7.2251 -0.958613 5.78768 -5.17983 9.59944 1.75863
163 55 1 6.70759 -1.61685 5.19038 -4.0514 1.38813 13.7784
596 199 2 5.02867 -0.239157 3.79216 -1.52062 -3.66203 6.11901
164 55 2 7.38223 -2.3563 5.00634 7.45844 -5.27801 -5.26853
407 136 2 0.377563 -6.9397 7.37228 -5.61623 0.393802 0.836981
408 136 2 1.08077 -7.23802 8.79999 -1.34995 -2.95694 10.677
222 74 2 6.53125 -4.58958 4.67637 5.38307 -6.70518 3.00444
406 136 1 0.195923 -6.9493 8.37183 2.25096 -1.77313 -6.37569
416 139 2 7.30851 -2.55598 9.54909 -4.72156 2.55476 -12.1536
415 139 1 7.2746 -1.89967 8.75237 -1.06409 4.40673 29.9458
221 74 2 5.75055 -3.2098 4.96112 -3.09295 5.73514 7.18444
220 74 1 5.71419 -4.21888 5.14186 -4.29708 2.15694 -11.5263
301 101 1 4.01035 -0.505059 8.23532 13.6787 -16.2531 6.24597
302 101 2 4.90255 -0.43555 8.7215 5.16842 12.0882 4.55482
303 101 2 4.0019 -1.53163 8.10966 -17.0945 4.26703 -6.5454
166 56 1 3.64632 -3.49743 7.48098 -3.08313 17.4679 6.9736
167 56 2 4.18258 -3.31483 6.6344 3.37556 -10.7326 -1.3986
356 119 2 4.11744 -7.31345 3.99132 4.98231 -3.85521 -1.21555
168 56 2 3.59067 -4.46704 7.76556 4.35831 -2.60405 -5.01027
431 144 2 3.07399 -5.16234 3.97299 -5.11604 -1.27587 -1.18253
432 144 2 4.67956 -5.37729 4.15444 -9.27307 -3.88412 0.742671
430 144 1 3.80744 -5.85018 3.8507 8.55635 20.5224 2.44189
573 191 2 6.19389 -6.2017 9.33119 -1.36442 -0.912911 8.42125
417 139 2 6.93654 -1.0207 9.18424 6.20751 -3.0463 -11.243
428 143 2 -3.77017 2.35237 3.78747 4.78591 10.6271 -11.3964
93 31 2 -5.55499 0.802026 3.63165 3.77073 0.703133 1.84923
427 143 1 -4.73414 2.36997 3.4528 -9.85819 -15.7984 -7.4613
359 120 2 -5.41715 3.49162 4.28107 -7.70235 -5.36441 3.04537
358 120 1 -6.17748 4.13973 4.5362 -5.73522 23.3432 8.3856
360 120 2 -6.93386 3.62972 5.01801 -1.28066 1.54225 1.94419
255 85 2 -6.56183 0.451834 6.83555 -0.871021 13.5561 -1.06112
253 85 1 -7.45768 0.642727 6.37353 -3.9405 -12.5885 1.99984
505 169 1 -1.44295 2.2869 4.45509 0.600357 -4.92267 -7.3938
506 169 2 -1.35492 1.36183 4.0208 -0.966808 -0.26241 -6.23621
507 169 2 -2.02265 2.14962 5.29687 3.52906 11.957 0.643305
316 106 1 -0.194101 6.17861 5.91466 4.20673 12.4341 -13.9848
61 21 1 -4.97017 1.30003 7.59925 -2.99958 -9.51318 12.4528
62 21 2 -4.22428 1.9198 7.27686 10.6649 -3.99278 -9.88364
63 21 2 -4.63382 0.43563 8.03806 2.12897 8.11125 -6.16936
48 16 2 -7.45437 3.61927 9.76243 11.5816 3.24943 10.7344
589 197 1 -5.25203 3.51207 9.22651 15.3991 0.00996778 -4.04448
590 197 2 -4.56248 4.22232 8.94605 -5.00447 4.98512 3.28316
591 197 2 -5.01047 2.66013 8.7013 -15.3042 -0.20647 -1.77789
327 109 2 -2.92495 3.58693 7.41376 4.12721 8.61071 1.25673
202 68 1 -3.00915 5.33771 8.56857 -8.46006 -10.4011 4.85436
203 68 2 -3.14758 6.04639 9.29762 1.80866 2.16335 -8.0862
204 68 2 -2.18903 5.55075 8.00912 3.11074 1.88588 2.42179
317 106 2 -0.592621 5.49811 6.57346 3.89081 1.00912 2.46205
318 106 2 -0.818114 6.9456 5.62247 1.8461 -8.84209 0.831727
325 109 1 -2.67793 2.81875 6.79267 -1.24645 -15.8326 8.97893
326 109 2 -1.75016 2.45026 7.06377 -2.73556 4.61428 1.34153
66 22 2 -7.4263 6.8094 9.73883 -3.08582 4.68011 -5.41076
458 153 2 -6.61515 7.27022 7.68735 3.45058 10.707 9.56693
275 92 2 -7.36622 6.10015 6.6554 0.0296025 -7.2176 -8.89389
276 92 2 -6.20399 5.90046 5.45271 -0.611694 -10.8963 -4.46687
274 92 1 -6.48475 6.435 6.27397 -4.37426 10.3992 12.1487
397 133 1 -0.15356 4.25124 7.82278 -4.6667 -0.8656 2.9084