ITEM: TIMESTEP
500
ITEM: NUMBER OF ATOMS
648
ITEM: BOX BOUNDS pp pp pp
-8.3805356160969104e+00 8.3805356160969104e+00
-8.3805356160969104e+00 8.3805356160969104e+00
-1.8623412480215354e+01 1.8623412480215354e+01
ITEM: ATOMS id mol type x y z fx fy fz
198 66 2 -5.61168 -5.86749 -13.0076 2.52944 -1.54681 0.413469
280 94 1 -6.89012 -7.67359 -13.3715 -11.6696 -4.46783 -6.66259
281 94 2 -7.64626 -8.20579 -13.8237 10.0964 10.4826 3.41204
282 94 2 -6.39396 -8.30456 -12.7487 9.29026 -2.61732 1.67665
388 130 1 -8.17285 -7.75947 -16.672 8.18237 1.51439 -1.72516
389 130 2 -7.29364 -8.30524 -16.7538 -8.84467 -5.07319 1.91271
390 130 2 -8.23864 -7.08166 -17.4265 0.47863 0.53695 -1.06281
496 166 1 -7.75478 -0.727412 -18.1993 -11.9468 -11.4103 -11.1101
497 166 2 -7.77444 -0.129657 -17.3541 8.34975 2.82897 -5.08312
498 166 2 -6.80033 -1.02658 -18.3934 -2.3376 0.22973 2.85257
584 195 2 -5.68335 -6.6363 -16.4796 2.22698 1.79597 1.16605
585 195 2 -5.04879 -6.63247 -18.0364 -1.797 7.04159 5.20894
76 26 1 -0.342462 -4.41095 -15.3519 -5.03906 -10.3668 -6.01476
78 26 2 -0.989727 -3.80762 -14.8364 7.34467 8.38555 2.51416
114 38 2 -3.06421 -5.14425 -18.5643 -1.38066 10.0154 2.118
368 123 2 -3.0016 -6.34824 -16.5301 3.47884 2.73247 3.83123
369 123 2 -1.50685 -5.7631 -15.8534 -1.6837 1.42045 -6.17842
583 195 1 -4.9755 -6.22436 -17.0825 4.58824 -5.5043 2.96024
190 64 1 -3.66415 -0.96993 -14.956 14.0974 5.8798 -9.25958
191 64 2 -2.75597 -1.39425 -14.7311 -6.30537 -5.64432 6.35899
192 64 2 -3.40099 -0.217103 -15.5993 -9.39972 0.744447 1.83529
214 72 1 -4.08373 -3.10612 -17.7736 13.6298 4.36379 13.2413
216 72 2 -4.27671 -3.24034 -16.7783 -2.18637 -0.340681 -5.52596
526 176 1 -6.40502 -1.38561 -14.7282 15.2547 6.42686 16.8492
527 176 2 -5.45242 -1.04263 -14.8871 5.26979 -1.67245 -17.1239
528 176 2 -6.23804 -1.61335 -13.7538 -15.7953 -6.36552 1.91155
215 72 2 -3.23321 -2.52822 -17.8445 2.21249 -1.04573 -0.25402
639 213 2 -0.794544 -2.65679 -17.6166 -1.55244 10.2815 4.21009
637 213 1 -1.50302 -1.91779 -17.6759 -6.95348 -10.4404 -7.73883
638 213 2 -1.25582 -0.996963 -17.2791 4.18294 -2.87183 3.10519
336 112 2 -1.1633 -1.96488 -13.0226 8.30953 4.49547 -9.50915
196 66 1 -4.90187 -5.22926 -12.6454 -3.09233 -8.42279 0.263311
529 177 1 -7.88158 -4.58106 -14.556 0.159187 8.1774 -7.81695
530 177 2 -7.05968 -4.21909 -15.0443 -4.36887 -1.32557 2.51114
531 177 2 -7.60444 -5.11011 -13.7387 -0.825029 -6.65758 5.61477
197 66 2 -3.9677 -5.61318 -12.8501 0.975794 2.28518 0.74483
367 123 1 -2.20673 -6.51791 -15.9024 -1.4886 -2.28745 6.63476
454 152 1 -2.35166 -6.44435 -13.146 -10.0758 -5.23907 4.25385
455 152 2 -1.41965 -6.3382 -12.7361 0.750284 4.94992 -6.15954
456 152 2 -2.30182 -6.60204 -14.1667 2.75181 1.32376 -0.691273
334 112 1 -1.0097 -1.98623 -14.0395 -16.3406 -2.38868 0.465751
335 112 2 -0.453885 -1.21804 -14.4203 5.10945 -1.4594 8.67203
353 118 2 3.08625 -3.95732 -15.2012 -0.101965 1.69792 -7.06558
77 26 2 0.579963 -3.96515 -15.4548 -0.277316 0.145665 4.72373
169 57 1 5.5103 -6.28669 -15.5934 -0.393605 -0.428113 -0.267655
70 24 1 3.89715 -8.31986 -14.6282 -5.95287 -2.04998 -5.39469
72 24 2 4.45379 -7.54225 -15.0213 -3.7542 1.07779 -6.97633
170 57 2 6.48493 -6.23637 -15.299 -0.778043 1.91022 1.32015
171 57 2 5.38761 -5.61661 -16.3677 1.66067 1.8219 0.738796
394 132 1 5.5809 -4.41537 -17.6617 20.0069 -16.3395 -2.16176
395 132 2 6.09513 -4.70762 -18.4917 -4.16373 0.858019 2.78833
323 108 2 4.24148 -1.73489 -13.4256 -1.91586 8.68626 -2.05566
396 132 2 5.9913 -3.52202 -17.3614 -6.85471 12.4957 3.75864
89 30 2 7.44542 -3.41157 -14.4922 -14.8739 -0.592109 -7.38911
352 118 1 2.26408 -3.39902 -14.976 4.36343 -28.3648 8.6887
7 3 1 1.53165 -1.08891 -15.6526 -14.5713 28.4072 -10.0627
8 3 2 1.937 -2.04495 -15.5638 -4.26372 -2.00119 2.91387
9 3 2 0.788486 -1.00754 -16.3422 4.21932 -5.2831 -1.05785
354 118 2 2.30868 -3.22452 -13.9527 1.41913 10.9043 -6.24865
154 52 1 6.35893 -1.82474 -16.9894 1.18241 -4.87674 -10.806
155 52 2 7.05517 -1.29713 -17.5205 0.573381 -0.46172 5.73881
90 30 2 7.95559 -2.10717 -14.031 -5.5354 19.6021 -0.989555
156 52 2 6.54627 -1.79194 -15.9784 2.14072 -0.32529 0.173117
88 30 1 7.07847 -2.44595 -14.4226 25.3838 -18.2577 8.80988
322 108 1 4.88253 -1.03084 -13.8258 -6.2641 -13.1929 5.80546
324 108 2 5.75159 -1.55523 -14.0533 -2.1486 7.50644 -1.1323
55 19 1 1.64853 -6.8295 -18.3917 0.390327 -9.86354 -0.46466
56 19 2 2.07266 -7.33747 -17.6127 -2.87237 -1.01199 -0.0226444
504 168 2 4.42169 -8.23019 -13.1004 -1.22021 -0.134103 -1.97414
205 69 1 2.91676 -2.5867 -12.5108 7.54836 -15.4356 0.768526
424 142 1 0.300653 -5.43237 -12.5587 12.8279 -7.15757 -1.08486
425 142 2 0.402019 -5.43263 -13.5752 -8.99762 3.41141 -2.04653
580 194 1 2.95552 -4.59988 -18.2176 -11.3291 -11.4462 -12.1436
581 194 2 2.29491 -5.3597 -18.4828 -1.61533 4.22233 8.70879
582 194 2 3.7725 -5.13159 -17.9036 4.60919 19.8802 0.859186
183 61 2 -7.46743 5.07213 -12.869 -3.21316 -0.376773 -0.507762
447 149 2 -6.8916 5.53851 -14.7557 -1.85857 -4.03327 -2.42107
187 63 1 -6.33368 6.99716 -16.8662 -1.35821 6.409 12.2845
189 63 2 -5.57934 7.1934 -17.5414 -4.70431 -11.3353 -5.76378
445 149 1 -7.19486 4.56253 -14.7087 5.33887 4.43835 1.39967
295 99 1 -7.21054 1.16769 -16.4982 32.2585 2.21236 2.03785
296 99 2 -6.78174 0.704847 -15.6792 -16.3905 6.14101 -4.54481
297 99 2 -8.11468 1.62245 -16.3324 -10.796 -10.249 17.0085
217 73 1 -3.77309 1.4869 -16.812 -13.8856 14.6231 12.2913
218 73 2 -4.69915 1.40433 -17.2141 -3.94427 -10.6917 -10.1443
30 10 2 -3.19646 2.89505 -18.5225 4.15722 -5.62199 5.4889
446 149 2 -7.07284 4.13952 -15.638 -2.42032 1.55177 0.606949
219 73 2 -3.99948 2.17031 -16.0745 12.9438 -5.28698 3.20379
283 95 1 -7.24199 4.00178 -17.6052 -0.531686 13.2493 1.61708
284 95 2 -7.55906 4.66756 -18.337 -1.22008 -7.10344 3.05061
484 162 1 -4.58312 3.0052 -14.0768 2.46833 3.24929 1.44085
486 162 2 -5.44472 3.36019 -13.6389 10.4909 -0.5399 -8.80326
485 162 2 -3.7324 3.50209 -13.7901 -11.6801 -3.39597 1.78228
285 95 2 -7.62618 3.06722 -17.7188 2.03892 0.0456905 -3.90829
188 63 2 -6.86989 6.15624 -17.0991 6.62778 2.33053 -6.50174
598 200 1 -1.17183 0.500336 -16.4725 -5.43655 -12.8513 -5.47076
599 200 2 -0.667812 1.26487 -16.0317 -3.96508 5.09419 -4.30124
600 200 2 -2.06247 0.791888 -16.9264 9.56779 9.03623 9.00926
71 24 2 3.33086 7.9435 -15.3359 3.52853 7.16784 1.79647
292 98 1 6.37135 7.65419 -16.1245 3.26237 0.770521 -4.61791
293 98 2 7.3053 8.03472 -16.343 2.50478 -0.0250397 -6.16216
294 98 2 6.14486 8.16328 -15.2743 -10.2383 -4.92284 1.5567
16 6 1 2.87937 0.795984 -14.4276 12.2745 5.76167 8.11714
17 6 2 2.24979 0.209056 -14.9979 -1.96006 -5.81458 -0.725758
18 6 2 3.646 0.130401 -14.2017 -0.533918 3.42646 0.732482
619 207 1 5.01528 2.62828 -14.5442 5.53797 1.59596 -4.02777
620 207 2 4.79223 3.43618 -13.9723 -1.40585 -1.18801 2.60046
621 207 2 4.30582 1.8832 -14.4842 -3.76301 2.64593 1.11525
624 208 2 2.24153 3.14506 -16.5501 0.751638 4.08262 -1.93741
622 208 1 2.14571 4.15821 -16.584 -0.277754 -7.06559 8.39603
25 9 1 2.16009 7.07995 -16.7406 -19.9516 8.32141 -9.45559
26 9 2 1.39321 6.42255 -16.8967 1.94129 3.41941 6.11402
27 9 2 2.97625 6.58931 -17.1641 4.50117 4.87199 13.5568
97 33 1 4.36328 5.90581 -17.0818 19.3124 -12.4933 -11.8368
98 33 2 5.13888 6.53357 -16.8178 3.99411 0.302935 -2.61026
99 33 2 4.61631 5.28579 -17.8778 3.9151 1.58038 11.3632
541 181 1 6.0848 5.63819 -14.1552 -2.01433 -14.9054 -0.707985
542 181 2 6.67424 5.0786 -14.7686 4.52589 2.70951 6.96994
543 181 2 5.28316 5.89156 -14.7154 -4.7528 8.69228 -0.924679
586 196 1 6.9503 1.57684 -16.1182 -0.381568 20.4263 -0.773873
587 196 2 6.79327 2.02458 -17.0176 -7.01246 -3.55284 1.45421
588 196 2 6.32317 2.04277 -15.4255 0.10897 -11.2795 -4.14205
605 202 2 1.66889 1.75407 -12.9342 2.33021 -6.38589 -1.64213
474 158 2 7.00529 8.33745 -18.5832 -11.4918 -3.85283 1.11701
623 208 2 2.97533 4.60875 -16.1854 -2.91005 0.243803 -8.53464
210 70 2 -7.26962 -8.06629 -10.7615 2.21953 0.155288 -2.91517
328 110 1 -6.78127 -6.04312 -9.89219 6.641 0.841668 5.43517
329 110 2 -6.00986 -5.59614 -10.3893 -3.26377 0.378601 -3.93908
330 110 2 -6.94959 -5.47048 -9.04126 -6.85161 0.337527 -2.92998
618 206 2 -4.48171 -7.83078 -11.1119 -2.96039 -0.0341213 -0.275936
11 4 2 -8.33713 -1.1424 -9.51742 0.63846 1.34219 -5.11489
224 75 2 -6.51527 -7.5193 -8.20958 1.89759 1.26982 6.36257
538 180 1 -0.333349 -7.29416 -10.4414 -3.53274 -5.7282 5.64237
540 180 2 -0.327218 -6.50415 -11.1069 7.10198 -3.86614 5.2875
148 50 1 -7.31112 -4.40648 -7.7074 9.90366 -6.63073 3.36827
149 50 2 -6.89836 -4.58646 -6.77913 -1.68957 1.96901 -4.45886
150 50 2 -7.55979 -3.42439 -7.80486 -2.06998 2.24837 1.35051
232 78 1 -7.35467 -0.896229 -8.00669 1.41787 -11.9097 -17.8175
233 78 2 -6.33096 -1.02172 -7.98684 -4.16605 9.22508 9.31837
234 78 2 -7.74848 -0.360696 -7.22746 1.54888 -4.23609 3.33022
448 150 1 -4.52406 -0.785371 -7.84215 0.238319 -11.7604 -7.1401
449 150 2 -4.37036 -0.421748 -8.78662 1.50896 5.46369 5.03121
450 150 2 -4.00381 -1.66821 -7.77995 -2.49931 9.93936 4.23901
81 27 2 -0.42579 -0.15513 -8.19584 -8.6423 -9.0813 -7.95326
79 27 1 -0.968679 -0.846162 -8.76952 6.96653 0.084546 8.30622
80 27 2 -0.55594 -1.7767 -8.69921 -1.73207 8.91963 -0.824285
269 90 2 3.43451 -4.98198 -10.8364 4.87489 -2.39829 -0.800211
304 102 1 7.58013 -6.39731 -11.6361 -5.81853 8.43299 1.0439
305 102 2 8.28791 -6.17782 -10.9338 4.90939 0.684975 1.44356
306 102 2 7.59698 -7.39506 -11.8292 -0.750507 -3.14924 1.35502
270 90 2 3.3014 -5.91 -12.1788 1.10029 2.31084 3.39316
268 90 1 2.88392 -5.11036 -11.6911 -3.20701 -7.35346 -5.68235
206 69 2 2.84915 -3.57291 -12.2005 1.25609 1.05987 3.20344
207 69 2 2.94628 -1.99499 -11.6498 -8.35285 8.87984 -9.72846
235 79 1 5.82767 -2.70106 -10.7045 -30.8164 -17.9416 -8.50235
236 79 2 6.70564 -2.12932 -10.7401 -1.17234 -2.60976 12.4313
259 87 1 5.39601 -5.27189 -10.3533 -3.97732 -4.44163 7.7195
260 87 2 5.55028 -4.24373 -10.2919 6.90029 -1.98571 -8.73532
261 87 2 6.13818 -5.6636 -10.9617 -0.984515 1.51473 0.742724
361 121 1 3.38596 -4.47981 -8.083 -4.44738 -3.20708 -3.86993
362 121 2 3.24788 -5.41299 -8.48941 -1.96036 4.7912 6.29454
363 121 2 4.20095 -4.04675 -8.51074 2.41948 -0.635373 1.06111
601 201 1 2.3146 -2.36528 -6.55273 -0.861705 -12.2516 0.533319
603 201 2 2.54811 -3.22445 -7.0834 0.346832 7.22382 -6.64376
237 79 2 5.08851 -2.23325 -11.2219 2.85366 4.97955 0.801546
483 161 2 3.52093 -1.155 -6.60354 13.1371 1.38571 -3.11108
10 4 1 7.85699 -1.34851 -10.3592 20.5111 6.95798 5.33204
12 4 2 8.0646 -0.743135 -11.1632 5.28621 11.6743 4.54046
379 127 1 2.91059 -0.653602 -10.8119 0.763482 7.26596 19.8075
380 127 2 2.94134 -0.229313 -9.88155 -0.840573 -7.69612 2.04819
481 161 1 4.50339 -0.803418 -6.66994 -6.85834 -1.17574 -7.85618
426 142 2 1.26732 -5.28177 -12.2115 -8.28399 0.878248 5.97081
539 180 2 0.388759 -7.20028 -9.72061 0.981499 6.92561 -6.74142
349 117 1 2.63733 -7.33117 -8.88472 -0.0301391 1.93094 1.68524
351 117 2 2.65873 -7.77712 -7.9563 -0.484513 2.56958 -8.66454
350 117 2 3.6039 -7.28292 -9.24303 -0.435367 -7.37824 5.67761
514 172 1 5.39149 -7.83791 -8.88367 -2.82073 5.07428 -1.98886
516 172 2 5.71377 -6.92203 -9.21393 -0.675825 -2.69157 -2.44693
465 155 2 6.61398 -0.215025 -6.24755 6.18725 2.13464 0.212753
482 161 2 4.69465 -0.633402 -7.66632 1.40013 4.35719 0.905188
181 61 1 -7.37857 5.69397 -12.0593 5.97493 4.99356 1.30448
182 61 2 -7.61485 5.23225 -11.181 -3.75307 -9.7507 4.92747
133 45 1 -8.03783 4.8169 -9.33272 12.1469 3.54361 -7.73614
134 45 2 -7.15013 4.97602 -8.82282 -4.39795 7.41896 1.82092
208 70 1 -7.9733 7.97056 -10.6139 -3.73175 -3.49661 15.6118
209 70 2 -7.69002 7.02925 -10.9247 6.08007 4.70381 -12.3553
616 206 1 -4.57228 8.14377 -11.7495 6.65981 0.754038 2.26494
617 206 2 -3.71852 8.1266 -12.3091 -4.57456 0.745583 -2.62111
225 75 2 -7.16958 7.93436 -8.8597 -0.809801 -2.34973 2.76827
121 41 1 -4.54185 2.20348 -10.2793 -7.20799 9.93185 0.218524
122 41 2 -3.83778 2.93385 -10.3226 8.97785 -4.01131 1.41176
123 41 2 -5.04085 2.21061 -11.1591 -1.94953 -6.2395 -2.89672
277 93 1 -2.87205 2.6848 -6.71666 -2.98915 2.40614 7.09206
278 93 2 -2.60837 2.97674 -7.65838 3.4138 1.90926 2.78558
470 157 2 -4.80348 0.433986 -6.2895 0.261956 -4.51726 3.3387
128 43 2 -1.2257 1.32033 -8.99971 1.49029 2.48304 -0.32682
69 23 2 -7.70694 1.42626 -8.89569 3.24097 3.14399 0.849144
262 88 1 -5.85707 5.51739 -7.80979 -5.3795 3.19802 -2.3945
263 88 2 -5.03588 5.07716 -8.21182 8.19103 3.17392 -3.54854
264 88 2 -5.77269 6.54514 -7.82284 -2.6162 -5.89429 1.81506
442 148 1 -3.80907 5.59155 -9.95373 -9.6786 -0.00839477 -6.15242
443 148 2 -3.21211 4.86315 -10.364 6.08981 0.848132 1.60993
444 148 2 -4.25229 6.03997 -10.7562 -3.35692 6.42974 6.60544
94 32 1 -1.2503 4.55149 -8.31446 -11.396 -10.3945 -8.91136
95 32 2 -0.456233 4.43785 -7.66835 11.4625 1.87341 5.13875
96 32 2 -1.44776 5.54407 -8.44079 -1.18122 9.44837 -2.0163
127 43 1 -1.46588 2.15368 -9.54517 -3.12314 7.01782 -10.4181
129 43 2 -1.28755 3.03541 -9.03955 4.52185 -2.78297 5.73269
412 138 1 -2.25159 4.04821 -11.4693 2.71058 -2.83937 -1.11703
413 138 2 -1.68956 3.36909 -10.9357 -5.57602 -7.6232 3.93964
414 138 2 -1.63248 4.78244 -11.788 2.42289 3.22164 -2.55647
562 188 1 -1.58711 7.36287 -8.84539 8.24798 14.174 -9.49392
563 188 2 -1.22007 8.07889 -9.50563 -3.632 -7.26405 8.5799
564 188 2 -2.58994 7.52294 -8.74292 1.99194 -5.79838 -0.35011
223 75 1 -6.62341 8.24086 -8.0462 -5.26109 -0.59682 -12.7426
157 53 1 -8.34067 2.96862 -6.71506 -33.8491 -9.90456 5.18524
158 53 2 -7.64742 2.66361 -7.39453 24.036 3.43291 2.36651
308 103 2 -7.90675 7.13062 -7.04417 0.14445 -0.504562 1.47757
490 164 1 -6.18857 1.91997 -8.12433 0.0869291 5.16399 0.839007
491 164 2 -5.5654 1.5934 -7.37736 -4.68152 3.15699 6.41233
492 164 2 -5.56649 2.27815 -8.86166 1.28833 -6.27036 -6.39396
547 183 1 8.11429 0.955977 -11.766 -0.907094 1.36924 -11.1433
548 183 2 7.97591 1.80518 -12.2966 -1.26674 -1.78195 -7.75015
549 183 2 8.00413 1.24261 -10.7762 5.9436 -0.740234 6.72737
135 45 2 8.31893 4.01992 -8.85984 -9.01784 -6.91383 0.555253
67 23 1 8.15335 1.71647 -9.30552 -14.8697 0.0770682 11.3954
466 156 1 6.41658 6.65936 -10.2288 -8.32161 -9.60863 8.10174
468 156 2 6.72714 5.69465 -10.1308 3.64117 -0.00538191 0.386501
502 168 1 4.81604 8.25417 -12.1886 -3.90706 -9.22702 -0.0242574
503 168 2 4.92068 7.24023 -12.282 7.05962 8.86095 8.27695
467 156 2 7.26087 7.24077 -10.2555 3.69153 5.15931 -4.9407
73 25 1 5.19635 0.351831 -9.34175 8.62416 -3.77287 1.62431
74 25 2 6.13893 0.128384 -9.66309 -2.64634 -8.21093 -0.524556
75 25 2 5.17472 1.36776 -9.28656 -2.73308 9.76597 6.85678
141 47 2 1.09884 0.196265 -7.14591 -1.17774 5.79675 -1.13043
381 127 2 3.21272 0.119449 -11.3818 1.29901 2.74327 -14.2971
604 202 1 1.05349 1.77516 -12.1197 7.38523 6.10355 1.97763
606 202 2 0.121257 2.05818 -12.3846 -4.17912 -2.18011 1.23822
162 54 2 2.58932 2.75685 -9.53894 1.27371 1.68622 9.40639
230 77 2 2.98113 5.49264 -9.52864 -4.10276 -1.32401 3.25817
160 54 1 2.0495 1.93104 -9.30281 13.6652 8.88222 -19.4516
161 54 2 1.58569 1.68041 -10.1777 -8.62703 -5.77893 -0.22806
178 60 1 5.59344 3.03702 -8.6059 2.24279 -8.00428 -8.52956
179 60 2 5.58394 3.27649 -7.62807 1.24258 1.73376 10.2514
180 60 2 4.92848 3.66182 -9.07585 -4.42566 6.80109 0.827816
229 77 1 3.87557 5.02578 -9.35448 -8.45419 -1.78469 -6.76554
231 77 2 4.55235 5.67037 -9.74064 13.5575 7.16875 -1.4848
321 107 2 0.319366 7.3613 -7.42771 8.29284 -0.76181 7.02205
476 159 2 0.729734 6.7935 -10.235 6.89664 3.65269 1.62014
475 159 1 1.65407 6.88736 -9.80267 -1.68714 -13.2557 -15.565
68 23 2 7.48828 1.97839 -8.5595 5.08645 -0.407379 -9.42762
307 103 1 8.11673 6.57479 -6.59913 -0.584858 -1.32555 5.31501
309 103 2 7.21186 6.765 -7.02189 2.37424 1.43589 -1.5976
320 107 2 1.6205 6.75232 -8.18456 1.58567 7.51525 0.247409
477 159 2 2.01106 7.84324 -9.90262 1.16379 3.39132 0.740939
515 172 2 5.6222 8.18752 -9.56456 1.52393 -0.299305 -0.277486
139 47 1 0.415412 0.927832 -7.35264 -2.65989 -12.1798 16.1352
140 47 2 0.859784 1.83698 -7.21827 -0.39735 0.791321 -7.4063
82 28 1 0.857029 4.4469 -6.73257 0.998134 -5.15273 17.0605
84 28 2 1.44637 5.28821 -6.7767 -5.26652 0.00794849 -0.313171
319 107 1 1.30312 7.11143 -7.2673 -12.4314 0.646318 5.29451
341 114 2 -3.96795 -6.98803 -2.97904 -2.09496 -5.23771 -6.07005
525 175 2 -0.745914 -3.66314 -3.30251 -0.969214 -6.77914 5.59313
172 58 1 -7.14077 -5.45195 -2.54143 -7.03989 -9.20498 6.85915
174 58 2 -6.39992 -5.66623 -3.21693 -6.52311 13.0506 -1.53755
385 129 1 -6.43439 -4.10925 -0.00301363 8.86524 -19.0593 22.1217
387 129 2 -6.34685 -5.09061 -0.262054 -2.3978 1.10556 -14.1337
418 140 1 -6.89971 -7.43633 -0.754486 7.68793 -6.39224 12.4413
419 140 2 -7.02095 -6.80511 -1.56667 -3.32161 1.51713 4.54546
420 140 2 -7.64196 -7.33461 -0.0512078 -7.5749 5.0168 -7.73405
340 114 1 -4.30252 -6.96789 -3.97604 -5.52194 13.1686 -3.3329
537 179 2 -4.49803 -3.84095 -0.870893 4.54153 2.42889 5.80542
22 8 1 -5.58411 -4.92772 -5.1574 -5.51342 8.95234 2.8011
24 8 2 -5.20708 -5.77885 -4.71554 7.03769 -4.69937 -4.07935
103 35 1 -3.53057 -6.83869 -1.4953 9.25882 -14.9568 4.70606
105 35 2 -3.04317 -7.61006 -1.00858 -7.14594 8.75859 -2.48793
184 62 1 -0.331741 -7.62032 -0.269693 10.952 4.8564 -1.88748
342 114 2 -4.11288 -7.80884 -4.51109 2.83583 -4.36484 7.1233
104 35 2 -3.51277 -5.99144 -0.925323 2.44831 4.41643 -0.305839
185 62 2 -0.0174446 -6.65291 -0.146907 -3.1214 4.01081 1.93672
338 113 2 -2.94326 -3.75025 -2.35702 -5.19621 -13.3267 -7.86745
535 179 1 -3.483 -4.00532 -0.876788 -9.92808 2.31253 8.88109
23 8 2 -5.19934 -4.11126 -4.68006 -0.74998 -1.24954 -4.37297
119 40 2 -8.24239 -1.86392 -1.07688 6.14753 -7.85293 3.15873
173 58 2 -7.4788 -4.48387 -2.47562 12.022 -3.6976 -8.03926
427 143 1 -4.33691 -0.151773 -1.24939 8.49187 11.3182 -4.67295
428 143 2 -3.81383 -0.573454 -2.01143 -4.43593 -5.85256 1.32673
613 205 1 -6.91489 -1.59086 -2.19671 3.73955 11.3086 1.60526
614 205 2 -6.29429 -0.901707 -1.7669 5.80227 -6.63876 4.36074
615 205 2 -7.00624 -1.2687 -3.18115 -3.52402 -3.39896 -3.18352
550 184 1 -7.12977 -0.552833 -4.54847 0.0285713 1.92643 -4.19991
552 184 2 -7.97729 -0.413809 -5.15054 11.4203 2.63582 6.38155
337 113 1 -2.86778 -3.93432 -3.38486 5.49382 7.89729 -12.7127
339 113 2 -3.23899 -4.84624 -3.65343 3.32247 1.51904 8.09364
120 40 2 -7.72414 -3.11235 -0.132242 1.75433 4.39542 -4.55841
186 62 2 0.136233 -7.99871 -1.09144 -3.17967 0.839411 2.71702
602 201 2 2.46431 -2.63837 -5.58614 1.64618 4.84628 4.34768
310 104 1 4.67811 -2.49404 -4.59828 -3.62577 -2.72475 -1.94591
311 104 2 4.71142 -1.98203 -5.49959 1.0454 1.00767 6.86024
312 104 2 5.42585 -2.17664 -3.99567 1.52884 0.430573 -0.176702
523 175 1 0.0534857 -4.0728 -2.80083 0.206125 4.68548 2.57725
524 175 2 0.901089 -4.00248 -3.34869 -0.971102 0.651813 -1.80225
509 170 2 6.66968 -6.47947 -1.79431 -4.89353 -2.87689 0.218772
510 170 2 5.51973 -7.63671 -2.24595 4.79761 -4.31564 -1.93956
45 15 2 0.0553351 -4.3309 -0.909202 -1.12068 -1.75222 2.75362
508 170 1 5.67632 -6.72088 -1.84471 6.20915 1.18529 -1.255
240 80 2 4.22451 -6.24635 -1.41828 3.97233 1.05326 0.525337
238 80 1 3.24561 -5.90208 -1.40449 -8.71628 -1.4568 -2.32682
239 80 2 3.07031 -5.52508 -2.32047 -4.05408 3.64657 -6.70686
118 40 1 8.2176 -2.50019 -0.318121 -8.30426 -3.04671 5.22907
478 160 1 6.1066 -4.11621 -0.232763 9.2862 -3.59182 5.60138
479 160 2 5.4393 -3.92575 -0.972531 -1.34277 -1.05638 1.25465
480 160 2 6.92708 -3.48306 -0.311205 -2.89517 3.62473 -0.387689
469 157 1 -4.9084 1.2887 -5.73384 -0.277312 -13.785 -5.43596
471 157 2 -4.0398 1.81733 -5.92412 -1.28911 5.4032 -0.639586
279 93 2 -2.51189 3.32571 -6.00819 1.80098 -2.00995 -6.57691
159 53 2 -8.07729 3.70137 -6.06138 11.2764 1.39046 -3.04584
592 198 1 -8.16001 5.22567 -3.98843 -4.76719 4.59998 -13.2477
593 198 2 -7.98408 5.52251 -4.95594 4.01224 0.728994 3.87026
429 143 2 -3.77699 0.6715 -0.981887 -5.74817 -2.93264 2.6471
151 51 1 -2.85979 2.33489 -0.741181 -10.9793 6.22978 2.82118
153 51 2 -3.76664 2.81388 -0.804949 8.29186 -4.88217 0.617109
314 105 2 -0.149632 4.53627 -0.25141 -4.43234 -0.938155 -0.155558
551 184 2 -6.46806 0.231452 -4.58212 -4.18586 -0.0824465 -7.93203
152 51 2 -2.16908 3.06888 -0.483348 -0.130258 -5.3315 -2.92302
544 182 1 -6.10592 4.83922 -0.391414 -1.86684 -5.40033 -1.88361
545 182 2 -6.32877 5.78481 -0.118313 0.95757 4.48973 0.479718
546 182 2 -6.4498 4.64687 -1.32592 0.806224 0.516081 -2.34314
464 155 2 7.7354 1.05025 -6.16919 -3.00379 4.70656 -0.0093809
594 198 2 7.72322 5.67197 -3.75827 0.221765 -1.86285 6.14523
463 155 1 7.60391 0.0371865 -6.10519 -9.73316 3.38606 -2.64335
83 28 2 0.651823 4.23854 -5.73714 1.70441 -0.461537 -6.85029
373 125 1 0.31759 4.00437 -3.93651 6.41647 10.168 0.532451
374 125 2 0.505893 4.90681 -3.48777 -2.64679 -9.18089 -2.70663
375 125 2 0.517913 3.2336 -3.30199 -2.41375 1.03611 -2.15607
632 211 2 2.8046 6.08528 -0.0327715 -2.18183 -4.12624 2.22318
631 211 1 1.89402 5.7743 -0.391564 -6.30584 -1.36415 4.13205
458 153 2 7.60679 3.41827 -0.541556 2.39711 -5.51929 4.18218
386 129 2 -6.30374 -4.18287 1.02144 -2.8189 14.9821 -1.0919
536 179 2 -3.10039 -4.00535 0.084599 -0.992723 -2.89558 -0.20664
409 137 1 -2.38229 -4.75506 1.53026 -0.0869929 3.72799 -5.62279
410 137 2 -1.40529 -4.79293 1.20511 -2.01219 -0.566494 0.431026
411 137 2 -2.60222 -5.40464 2.27734 3.25696 -1.44147 1.08896
359 120 2 -5.30233 -1.13922 1.89187 -5.47087 -1.85404 1.80316
358 120 1 -5.22574 -0.127684 1.92407 6.70033 -4.75674 -7.08858
371 124 2 -1.71508 -8.27899 0.520722 7.71462 -4.22301 -10.8336
372 124 2 -3.30302 -8.36345 0.970052 -5.23185 -2.93147 -7.77929
400 134 1 -3.33029 -1.47064 5.73713 -10.9398 0.932515 -2.51938
401 134 2 -2.35084 -1.51356 6.02703 3.40021 11.7996 -1.5639
402 134 2 -3.59199 -0.491687 5.58587 2.85874 -6.38779 0.854501
574 192 1 -4.57453 -3.58208 4.94339 -5.80946 -12.9125 2.93047
575 192 2 -3.96575 -2.74571 5.08951 -3.74744 -4.04151 3.6324
576 192 2 -5.52337 -3.30312 5.24413 8.98637 2.80522 -6.5376
255 85 2 -6.56594 -1.37683 4.51593 -3.59302 4.97148 6.11682
437 146 2 -4.44425 -6.98603 4.16768 0.720903 -1.48175 -6.99688
253 85 1 -6.91267 -2.21721 4.99211 3.98654 -6.32348 -4.37276
407 136 2 -2.01346 -6.65339 5.8151 -1.24946 -2.11648 -1.7264
408 136 2 -0.336239 -6.53202 5.87139 -3.52652 -1.00913 -1.29068
436 146 1 -3.65821 -6.52429 4.61913 2.34944 4.54016 8.87892
438 146 2 -3.77235 -5.50353 4.59649 -4.47981 1.7659 -0.019834
568 190 1 -4.84779 -7.67915 1.26683 -5.03669 -2.42867 -0.829247
569 190 2 -5.53244 -7.71013 0.495887 2.6966 2.98516 -1.70451
570 190 2 -5.26912 -8.05687 2.13085 4.21498 4.68045 -0.378219
247 83 1 -6.77401 -3.9679 2.77958 -7.79089 -2.61398 -7.48123
248 83 2 -6.51794 -3.3484 3.55682 1.13298 -3.47177 -0.102738
249 83 2 -7.73271 -4.30226 2.87959 4.22683 1.51289 3.88082
254 85 2 -7.91259 -2.35366 4.86801 -4.71226 8.00265 1.24169
533 178 2 -5.03956 -7.43141 6.16306 -9.94079 0.218936 7.2781
43 15 1 0.127076 -4.60934 0.0846466 -2.05584 -4.47773 -4.03031
44 15 2 0.918381 -4.14262 0.522492 1.20025 -0.768254 -0.748509
87 29 2 2.98425 -5.59929 0.15346 11.5211 3.51617 8.43835
115 39 1 3.4817 -3.7053 5.16098 -8.02736 0.585031 -12.7168
116 39 2 3.91846 -3.60772 6.09629 -0.222231 -4.1164 -2.89973
117 39 2 4.01801 -4.28374 4.50522 -1.47317 5.95505 9.34934
19 7 1 7.59262 -6.66656 0.800608 5.29951 8.54763 3.66243
20 7 2 7.44853 -6.62471 1.80631 -1.1297 -2.79408 -3.18277
221 74 2 6.04304 -3.78412 2.02697 -3.12854 -0.178528 5.03751
21 7 2 7.21001 -5.80441 0.396846 -4.97252 -2.53067 -2.25775
165 55 2 5.90808 -0.799509 3.88891 1.21785 0.92597 5.32339
220 74 1 6.7611 -3.5715 2.72594 8.8834 -4.17792 -15.0995
222 74 2 7.5299 -3.18617 2.17797 -3.8299 5.49602 3.73506
487 163 1 3.95798 -0.839126 3.7436 0.132131 -2.94225 -9.99291
488 163 2 3.45065 -1.61299 4.18027 4.41995 0.797752 -1.08072
163 55 1 6.62024 -0.224433 4.36486 -3.14889 -3.54611 -10.9564
86 29 2 3.27564 -6.50338 1.49547 1.67983 -0.441472 3.80476
85 29 1 3.22013 -5.55047 1.17106 -11.6473 -1.26418 -2.18216
595 199 1 0.702577 -2.77219 5.71026 16.8351 -10.2801 -2.99512
596 199 2 0.535586 -2.28112 4.8485 -7.34202 5.65599 -3.78242
597 199 2 1.59298 -3.27939 5.5788 -6.48529 3.72987 6.64477
54 18 2 6.33208 -0.798182 5.86355 6.02637 0.628114 7.31037
360 120 2 -4.38973 0.0434232 1.36028 4.15713 7.25385 -0.0203113
565 189 1 -2.19304 0.352055 1.39688 -0.263231 0.956054 -2.88827
109 37 1 -8.26343 1.14576 1.32003 14.415 -9.95278 -1.20576
111 37 2 -7.61256 0.942143 0.558169 -2.31555 -3.12893 4.59814
313 105 1 -1.06907 4.1832 0.0200917 9.10199 5.00076 0.0775164
566 189 2 -2.02772 0.973371 0.60229 -5.89866 -3.00683 -0.477837
315 105 2 -1.60015 4.9033 0.560337 -2.85268 -7.96072 -2.93495
250 84 1 -2.63412 5.57209 1.65957 -4.86997 -1.98679 -5.87837
251 84 2 -2.73729 6.49678 1.19886 -0.0200526 -0.933942 -5.68239
252 84 2 -2.0535 5.7501 2.52095 -7.0212 -5.02347 -2.63309
370 124 1 -2.54839 7.87657 0.484475 -8.92279 14.4316 11.5256
110 37 2 -7.71913 1.18438 2.17933 -2.38745 -2.45628 0.619621
505 169 1 -5.67343 0.756996 4.39021 0.465617 9.24485 1.70306
506 169 2 -5.30176 0.61789 3.42928 -6.11509 -5.74311 3.71656
507 169 2 -5.92531 1.73399 4.53857 2.612 -8.18793 -1.20371
364 122 1 -5.47882 7.89597 3.5986 -3.66021 -2.67017 0.839865
365 122 2 -5.44805 7.07521 2.99278 2.08753 -1.23713 3.22673
366 122 2 -5.50597 7.59796 4.57382 0.65229 1.12287 -0.432588
557 186 2 -0.0641875 2.51617 3.98054 -1.96152 7.26991 0.988528
558 186 2 -0.486535 3.82636 4.93969 3.83544 -9.46004 0.655844
567 189 2 -1.71713 0.770067 2.19581 -2.21694 1.50767 -0.984468
193 65 1 -1.21181 2.78076 2.40705 -3.41551 10.2756 2.89368
194 65 2 -1.83923 3.51898 2.74006 0.446748 -5.54694 -0.189681
195 65 2 -0.973192 3.09015 1.45543 2.22729 -3.6039 -0.0596706
145 49 1 -1.21151 5.78428 3.6783 29.3994 5.46813 5.67421
146 49 2 -0.195329 5.67212 3.60884 -4.50824 2.14835 -3.49268
147 49 2 -1.45115 5.74709 4.68825 -5.70824 -4.26207 0.563448
316 106 1 -1.6117 5.13853 6.11512 3.23936 -10.1797 25.3388
33 11 2 4.68617 6.42549 2.23064 -3.44505 -5.81313 -0.95093
556 186 1 0.261467 3.14411 4.73468 -16.3892 -4.69959 15.0456
258 86 2 3.03345 2.68207 1.2216 -7.74573 -2.42633 11.7845
346 116 1 3.60664 0.891863 5.87031 -0.487686 15.7811 -8.27684
489 163 2 3.72019 0.04508 4.19783 -1.62128 -3.08609 11.1315
32 11 2 3.52755 5.18861 2.37975 -1.69823 3.38967 1.39152
256 86 1 2.13988 3.22091 1.25276 17.2195 -9.55452 -33.1361
31 11 1 4.00877 5.83539 1.7503 0.450155 5.31611 -2.94628
175 59 1 4.46266 1.95541 1.64625 15.2896 3.46221 3.13242
176 59 2 4.67299 1.05548 2.0833 -3.49826 -3.9354 -7.15654
177 59 2 5.33681 2.35179 1.25644 -5.92072 -1.95225 -3.59418
257 86 2 2.16483 3.71966 0.3588 -6.95195 3.77241 5.55592
265 89 1 1.9331 4.46706 3.40523 16.5196 17.5024 17.3389
266 89 2 2.02253 3.88035 2.53799 -7.62611 1.56557 -0.560789
383 128 2 4.87018 2.32451 4.80616 3.61436 -4.957 12.7571
633 211 2 1.14953 6.12141 0.213038 7.25881 2.51228 -1.66015
384 128 2 4.99331 2.44297 3.23523 17.4346 4.9183 1.6447
275 92 2 2.6721 5.47451 5.79755 5.42195 1.15575 0.487673
382 128 1 5.57739 2.4533 4.09199 -22.0105 -1.10752 -10.9149
457 153 1 7.09062 2.96457 0.207515 -23.7429 8.12387 -5.67972
459 153 2 7.51999 2.08683 0.565647 8.61 8.20487 1.79834
276 92 2 2.94927 4.09243 4.9794 4.47552 7.87465 4.52749
164 55 2 6.5391 0.711632 3.95641 3.38009 2.1605 7.74166
267 89 2 1.36057 3.95089 4.1156 -4.22626 -2.08507 -15.9209
274 92 1 3.17058 4.5844 5.85872 -7.28283 -3.68272 -5.95714
406 136 1 -1.17648 -6.76717 6.39467 3.79992 3.09413 -0.176002
138 46 2 -1.19948 -4.59074 8.63535 -0.0101841 -1.64912 -3.14961
61 21 1 -3.26956 -1.91323 10.0635 4.21617 -6.79761 7.05345
62 21 2 -3.77924 -1.02311 10.0252 2.60887 -0.40567 -4.40295
63 21 2 -3.06525 -2.28023 9.13932 -3.5546 4.63874 -0.487269
136 46 1 -0.513173 -5.32683 8.72838 7.0494 1.87965 8.71714
137 46 2 -0.523662 -5.97181 7.93827 -8.39773 -2.11859 -5.30682
301 101 1 -8.03025 -0.839332 7.99075 -12.5677 0.248053 -4.36356
302 101 2 -8.1902 -1.61449 8.63868 9.72713 1.73967 -0.394801
303 101 2 -7.14261 -0.966712 7.49427 -4.39423 -3.15188 7.43047
37 13 1 -1.12642 -0.155304 6.42698 15.0155 1.79245 7.58922
38 13 2 -0.64827 -0.748302 7.09977 -0.644502 -6.34915 1.38412
49 17 1 -0.878842 -2.26805 12.3133 -3.28816 14.9225 7.04878
50 17 2 -1.39911 -2.60111 11.4992 4.50857 -7.00966 1.42981
534 178 2 -6.7051 -7.20413 6.51021 9.55325 0.393635 0.707446
532 178 1 -5.88723 -7.80955 6.61557 0.577705 -0.302601 -10.7745
520 174 1 -5.94072 -2.66919 8.60531 -4.46489 2.73483 2.93347
521 174 2 -5.68318 -3.11636 9.48922 2.38603 -1.11101 -7.23034
522 174 2 -5.51589 -3.03793 7.76055 3.69865 -4.20616 4.28851
416 139 2 -8.17224 -5.49903 10.8369 -2.69654 -4.11228 1.5579
417 139 2 -6.9644 -6.29344 11.6557 -2.00731 3.91004 5.56718
290 97 2 -5.97163 -7.79389 11.8951 5.78189 -1.30472 -0.113
415 139 1 -7.18628 -5.48427 11.0519 -2.41615 5.21187 -8.51168
93 31 2 3.68011 -2.82625 8.21019 2.43875 0.811757 -2.26096
91 31 1 4.38706 -3.23761 7.59763 4.7736 14.2006 -5.22998
92 31 2 5.01944 -2.50104 7.22063 -4.16491 -0.824624 6.21672
34 12 1 3.3848 -7.11319 8.4604 4.4659 -2.7123 0.0737075
35 12 2 2.7174 -6.51325 8.93413 -6.21184 -1.7327 -0.518099
36 12 2 2.93754 -7.93121 8.02108 -3.61537 1.99862 -0.0603948
166 56 1 7.32208 -3.46452 9.94433 4.90762 -0.133521 0.431102
167 56 2 6.9656 -4.21717 9.35068 -5.35201 -0.644108 0.0124852
355 119 1 5.47712 -5.44949 8.4366 22.8673 1.24197 4.12545
356 119 2 5.10091 -4.58474 8.00888 -5.03161 -1.76484 3.05348
357 119 2 4.74029 -6.15963 8.51983 -7.03432 -3.77775 -3.10751
641 214 2 6.51681 -2.943 11.9745 10.7191 0.202356 8.68419
52 18 1 6.07825 -1.11662 6.82587 -6.72087 -5.23108 17.7608
53 18 2 6.88775 -1.17973 7.47143 2.86661 6.47776 -19.5587