ITEM: TIMESTEP
43500
ITEM: NUMBER OF ATOMS
648
ITEM: BOX BOUNDS pp pp pp
-7.2644954747661190e+00 7.2644954747661190e+00
-7.2644954747661190e+00 7.2644954747661190e+00
-1.6143323277258379e+01 1.6143323277258379e+01
ITEM: ATOMS id mol type x y z fx fy fz
561 187 2 -3.24669 -6.32693 -13.5668 -0.165294 4.92381 -10.5742
331 111 1 -4.89686 -2.9244 -13.0991 23.3685 10.6759 1.39155
333 111 2 -3.84463 -2.81588 -13.1679 -21.0064 4.0274 6.96618
559 187 1 -3.62725 -6.0398 -14.4863 0.269476 -6.45234 23.2413
28 10 1 -5.97545 -0.370062 -13.3006 -26.2822 -23.2802 -10.6298
560 187 2 -4.61179 -5.8031 -14.259 4.00256 3.45847 -13.4635
200 67 2 -2.80884 -2.99545 -14.8881 -4.37984 -1.51059 -17.2246
29 10 2 -5.75853 -1.39142 -13.1474 -0.843006 23.152 -5.00107
357 119 2 -1.63015 -1.70921 -13.214 -10.2405 -4.72971 -3.27896
355 119 1 -2.3176 -2.49177 -13.1658 16.0677 15.859 -18.3215
356 119 2 -1.90103 -3.12242 -12.494 -1.81399 -12.3378 17.4413
377 126 2 -1.28129 -0.58692 -16.0672 14.2328 0.966468 0.599855
199 67 1 -3.25456 -3.47333 -15.7023 8.18329 9.33996 18.8604
332 111 2 -5.19555 -3.56364 -13.8403 -2.1078 -8.08041 -7.33865
378 126 2 -0.0927747 -0.868871 -14.8773 -11.241 -1.26117 -5.00779
198 66 2 -6.00806 -0.162551 -10.1768 25.594 -30.0522 4.94859
146 49 2 -3.72549 -6.15447 -10.5029 -13.025 -5.48253 12.0042
274 92 1 -2.0592 -3.69794 -10.6205 -1.32072 19.0282 -28.1392
275 92 2 -2.8014 -4.37977 -10.5357 -5.47487 -7.16639 0.135465
201 67 2 -3.34409 -4.42869 -15.3455 -4.41816 -9.43118 -5.32842
446 149 2 -2.47077 -6.98538 -15.8062 -14.2848 7.61919 4.27612
346 116 1 -0.935614 -6.2829 -9.85049 2.70269 13.0613 -23.6545
583 195 1 -0.0796918 -0.828364 -13.1989 29.5285 -0.210774 19.6817
284 95 2 -6.60507 -5.14779 -15.2491 -9.25108 -0.819682 -9.46094
283 95 1 -6.09481 -4.86733 -14.424 -0.531484 2.38394 21.3852
30 10 2 -6.61472 -0.257821 -14.1065 7.16227 -4.1552 13.1692
285 95 2 -6.72771 -4.53961 -13.6718 0.270809 -7.32202 -14.7782
131 44 2 -6.91916 -5.02742 -10.8051 -1.03597 3.03529 -6.71562
130 44 1 -7.10911 -6.03554 -10.7685 6.47623 -11.3105 19.3767
83 28 2 -0.0525697 -1.94825 -10.6323 -2.96838 5.12285 -2.65543
145 49 1 -3.25933 -6.10064 -11.3896 21.5693 0.861993 -10.4243
637 213 1 -4.77014 -1.63181 -10.061 -13.4721 5.88199 36.8488
639 213 2 -3.8706 -1.83138 -10.4671 8.99836 -6.39741 -8.55217
276 92 2 -1.57641 -3.5959 -9.75345 8.52203 -1.21673 25.3362
147 49 2 -2.24774 -6.12715 -11.1536 -11.9151 -1.92636 -2.86724
44 15 2 -6.04972 -3.34631 -12.0266 12.2151 16.0889 -4.10584
43 15 1 -6.94359 -3.33682 -11.5219 -34.9615 -5.68848 25.4091
45 15 2 -7.20852 -2.41266 -11.1464 14.8065 -7.14937 -13.2597
414 138 2 -6.1657 -7.17285 -10.0422 17.2954 -10.879 3.74705
376 126 1 -0.372401 -1.0491 -15.8599 -0.13229 2.14277 -3.81437
369 123 2 0.0658327 -6.33387 -11.074 0.666357 -7.37476 -3.68592
385 129 1 5.62703 -6.09007 -12.6851 -13.3415 0.315475 0.538493
387 129 2 5.44021 -6.4403 -13.6337 -2.2366 2.5667 -0.486039
386 129 2 4.86932 -5.42011 -12.4523 11.8261 -3.7428 -5.6705
368 123 2 0.525571 -5.20228 -12.059 5.47848 -0.650944 -6.91502
367 123 1 0.566485 -6.22208 -11.9809 -12.7462 15.8111 5.26654
585 195 2 0.44507 -1.63083 -12.79 -14.5088 -0.793875 -6.60615
523 175 1 1.19143 -3.09465 -12.4829 3.13261 -1.36888 24.3608
525 175 2 2.0636 -3.11331 -11.9216 -9.57672 3.49197 -5.20044
336 112 2 3.94526 -6.40932 -16.0385 32.8695 16.2606 3.05991
644 215 2 1.61886 -6.81613 -12.9708 3.1365 -2.39488 5.82278
173 58 2 5.20369 -3.12899 -13.9356 -1.78605 -5.30925 -7.32772
174 58 2 5.31341 -4.19733 -15.329 -2.04772 16.577 20.4207
172 58 1 5.60556 -3.30452 -14.8692 5.90386 -16.9474 -20.594
115 39 1 4.7477 -0.804565 -13.4996 -4.00602 -2.21718 6.30928
117 39 2 3.74317 -0.748462 -13.3081 6.08736 7.68146 -4.1587
643 215 1 2.42551 -7.04077 -13.5833 9.84045 19.3383 -11.4914
645 215 2 2.79475 -6.14028 -13.9297 -2.16899 -18.2055 2.14763
116 39 2 5.02847 -0.207578 -14.2868 -0.928834 0.866996 -1.14978
334 112 1 4.79367 -6.08831 -15.4825 -4.31763 -3.33203 7.37849
584 195 2 0.667664 -0.110655 -13.0687 -12.3159 1.9006 -10.4393
81 27 2 5.44877 -3.60011 -11.669 -9.35164 -10.2137 -17.2723
80 27 2 4.2533 -2.62712 -11.8952 -11.6855 0.503979 -7.4225
79 27 1 4.55224 -3.56255 -12.1895 20.9739 11.1758 24.4268
602 201 2 5.76927 -7.19661 -10.0018 0.397842 3.00505 1.2055
524 175 2 1.3861 -3.16593 -13.4625 7.79574 -3.68016 -18.0969
132 44 2 6.68842 -6.25518 -11.4604 -3.81773 7.23526 -14.5891
384 128 2 3.43627 -2.44557 -9.68861 -11.7487 12.7123 -5.08548
383 128 2 2.39493 -1.13518 -9.96404 0.131064 1.91731 2.91905
382 128 1 2.98059 -1.84777 -10.398 14.6553 -15.8327 -0.413427
82 28 1 0.0977717 -1.5287 -9.71833 3.32325 -3.83304 -1.25519
335 112 2 5.65786 -6.12704 -16.0822 -20.5453 -5.38079 -3.35061
391 131 1 -3.6151 0.497923 -13.1606 65.7291 16.5448 -1.26247
196 66 1 -6.54752 0.552318 -10.596 -29.1509 41.5972 -16.57
392 131 2 -4.58907 0.264055 -13.3094 -28.4584 -10.3893 -2.53298
197 66 2 -6.38701 0.626694 -11.6167 2.11615 -10.9274 10.469
447 149 2 -0.990242 7.03526 -15.3782 -16.5068 -4.92263 -22.9581
556 186 1 -2.45524 0.929453 -10.5263 -27.1656 -41.0478 -22.9728
557 186 2 -2.76158 0.213118 -9.84782 9.06413 11.7221 7.12614
430 144 1 -4.1743 4.6097 -10.6976 4.81244 -7.21248 24.0425
14 5 2 -3.53625 5.07685 -14.9065 22.8844 -0.317162 -12.2621
15 5 2 -4.76519 5.38739 -13.9441 1.46268 -10.6177 6.39182
13 5 1 -4.22063 4.61838 -14.3393 -22.1592 5.3614 5.00806
175 59 1 -0.637864 6.35822 -13.9932 21.8323 -15.0345 8.32696
177 59 2 -0.25796 7.11436 -13.4085 -0.0415735 -8.79618 2.27555
393 131 2 -3.1242 0.624509 -14.0625 -13.6085 -4.05558 14.7168
176 59 2 -0.0728662 5.48377 -13.876 -14.0536 24.3532 3.32224
621 207 2 -0.104827 5.24165 -10.3378 -1.58427 -5.1821 -27.5202
431 144 2 -4.02545 3.97174 -11.4619 1.40915 -2.40994 -16.8814
265 89 1 -2.09882 2.83568 -12.5343 9.89368 17.2885 -7.24226
267 89 2 -2.5944 2.78982 -13.4279 0.158903 -0.297032 6.65387
266 89 2 -2.18559 1.96697 -12.0082 -2.62677 -3.82136 4.04876
520 174 1 -6.44032 6.44951 -15.4946 11.0208 8.33195 1.88762
521 174 2 -5.86106 5.62164 -15.6128 -1.31226 -3.78709 -9.22837
522 174 2 -7.03195 6.28102 -14.6947 -10.7532 -0.985458 5.86069
215 72 2 -5.4787 1.89526 -15.91 -1.44523 6.99779 2.16952
214 72 1 -4.54056 2.02185 -15.5277 7.32652 7.84769 6.58592
432 144 2 -3.63129 4.18328 -9.92309 -5.93937 8.85129 -6.39078
353 118 2 -3.228 1.30896 -16.0933 16.9772 -14.2674 -19.3801
216 72 2 -4.43844 2.94427 -15.0547 -6.30506 -8.03671 -4.91515
358 120 1 -6.92598 5.30973 -12.2832 33.1115 41.3332 -3.65199
360 120 2 -6.34508 6.18316 -12.1346 -27.0755 -38.4242 -3.04929
558 186 2 -2.85309 0.498824 -11.4018 10.3458 18.9939 11.9573
482 161 2 -0.486517 3.78448 -12.1507 -10.6108 -3.28011 -5.85996
597 199 2 -7.23529 3.75637 -15.7768 -0.721105 8.21101 -23.2713
413 138 2 -5.09914 5.97448 -10.1503 4.91273 -0.306423 -3.23999
9 3 2 3.19948 6.0483 -9.84261 13.3366 16.8301 -2.23491
479 160 2 3.63755 3.82048 -13.3123 10.9963 5.83723 -9.85679
478 160 1 3.87119 2.83527 -13.1638 -27.0389 -6.6393 4.46176
222 74 2 3.95394 5.52161 -15.5043 -2.55847 3.05323 -3.92945
509 170 2 5.47266 2.06774 -15.3374 -1.66513 6.69095 0.686149
508 170 1 5.57863 1.09569 -15.6032 8.63023 -5.05978 27.8405
617 206 2 2.47901 0.551896 -14.5718 -12.4485 -4.02089 20.7119
616 206 1 2.22393 0.64103 -13.5518 26.1007 17.6217 -22.5275
618 206 2 2.86699 1.41715 -13.248 -16.1185 -13.0457 -1.34947
481 161 1 0.447371 4.16685 -12.0024 -4.37763 0.479306 8.24458
516 172 2 7.0736 4.40477 -13.7495 -25.0098 2.54174 -8.24811
514 172 1 6.42123 4.20789 -14.5507 30.6799 -13.7618 15.7411
515 172 2 5.60461 4.82111 -14.585 -12.8411 6.63054 7.60449
221 74 2 3.40134 6.29493 -14.0562 5.79778 -9.13996 -12.3702
220 74 1 4.00639 5.54329 -14.4786 -0.505627 -0.0344869 13.9018
483 161 2 0.958238 3.49722 -11.413 5.69371 1.71964 -3.74576
555 185 2 2.91461 3.16904 -11.6237 -3.98055 -22.6081 2.36956
480 160 2 4.79597 2.66623 -12.8117 17.0144 4.72252 0.811631
359 120 2 7.2347 4.97895 -11.3755 -7.11041 -2.23473 -0.846995
268 90 1 6.29917 4.3373 -10.1058 -7.06328 -22.433 -22.4897
270 90 2 5.93286 3.37655 -10.1379 -2.86234 7.36591 -0.488437
8 3 2 1.51668 5.79956 -9.85169 28.9015 -6.90371 3.2047
7 3 1 2.46937 5.36086 -9.82046 -32.8978 0.909998 6.83312
553 185 1 2.52065 2.92062 -10.7017 12.0166 1.29487 -19.5247
554 185 2 2.66896 3.83026 -10.2607 -8.09451 14.2197 17.1264
242 81 2 0.24022 2.24419 -14.7213 9.64857 -1.11554 3.97072
241 81 1 0.129528 2.25935 -15.7266 11.1514 8.74802 -23.3739
348 116 2 -0.871541 -5.64361 -9.04697 -7.11336 -9.13738 9.82603
84 28 2 -0.162793 -0.527744 -9.64281 3.08359 -11.6964 3.66999
638 213 2 -4.66123 -1.60354 -9.02287 3.21606 1.07109 -26.1163
57 19 2 -7.06213 -2.73866 -9.03882 -6.59911 0.0599298 14.1631
366 122 2 -2.0812 -0.283879 -7.71574 -16.4503 -3.54153 -6.78066
477 159 2 -6.79544 -1.38726 -7.36916 4.04265 5.76892 -7.64728
365 122 2 -3.0526 -1.57384 -7.45165 1.44818 -4.52824 8.25051
67 23 1 -1.73802 -4.57989 -7.82932 30.525 -4.28834 -2.59075
69 23 2 -1.81904 -3.82152 -7.14143 -12.9581 2.95559 3.37325
32 11 2 -2.16112 -5.5281 -4.53952 -10.9674 8.5554 12.548
364 122 1 -3.00006 -0.6965 -7.97192 19.5835 8.56992 -4.02039
68 23 2 -2.5644 -5.20368 -7.77038 -4.41505 6.92865 -8.25217
31 11 1 -1.78094 -6.35852 -4.95542 11.7713 -0.281259 -16.4821
33 11 2 -1.10144 -5.97937 -5.6264 -3.52314 -12.8603 5.24437
233 78 2 -3.8448 -2.98732 -5.95289 37.7365 3.02781 -12.0552
195 65 2 -6.3524 -1.89727 -5.4249 -7.24869 -11.3884 7.23638
193 65 1 -6.28684 -2.70506 -4.77572 23.359 27.2531 -10.5122
625 209 1 -4.69869 -4.03119 -3.26741 -11.2363 18.7428 -17.4814
627 209 2 -5.16275 -3.32609 -3.93759 9.52334 -30.6884 24.7795
308 103 2 -4.1207 -6.04405 -7.17832 -11.3476 0.49458 -4.84193
232 78 1 -2.82105 -2.81858 -6.1593 -51.1599 -9.92636 0.952063
530 177 2 -0.378372 -0.0160562 -4.68173 -11.4949 5.24911 -11.4354
194 65 2 -7.0955 -3.29227 -4.68531 -18.651 -4.28338 -5.67435
476 159 2 -5.69355 -0.0598999 -7.54416 6.5601 10.0303 -10.7298
475 159 1 -6.265 -0.608919 -6.92293 -17.3554 -14.4723 23.3055
307 103 1 -3.96774 -5.87311 -8.18772 -5.6933 -14.1756 -1.66927
309 103 2 -4.55429 -6.5552 -8.71018 4.74228 3.48549 7.43588
178 60 1 -5.38651 -6.40481 -5.88261 29.5575 -3.60465 5.28012
350 117 2 -7.24194 -6.1229 -8.04818 10.0902 -12.4456 -9.22922
179 60 2 -6.23104 -5.92195 -6.16726 -15.2054 3.046 -3.50018
634 212 1 -2.61591 -1.50177 -3.79675 18.1071 -38.652 4.65334
234 78 2 -2.48401 -2.48065 -5.2604 8.58848 11.4635 14.4873
636 212 2 -2.847 -0.566307 -4.09272 -13.2919 31.1438 -0.507242
603 201 2 4.9422 -6.63273 -8.60678 -1.20049 5.10958 -7.15641
56 19 2 6.66462 -3.53522 -7.79345 9.36418 11.3571 -1.2486
55 19 1 6.96656 -2.60946 -8.14594 6.10537 -11.1591 -13.7039
343 115 1 5.57803 -0.414148 -5.68363 3.29779 0.213807 23.0949
438 146 2 1.17203 -2.41997 -8.68462 7.92797 -8.24658 15.9627
344 115 2 4.804 -0.63184 -6.33614 -10.2552 0.952322 1.61222
306 102 2 2.90805 -1.69176 -6.8371 -29.3183 -32.8796 2.56567
345 115 2 6.41263 -0.309336 -6.22297 16.8368 1.63134 -12.7656
436 146 1 1.57346 -3.03397 -7.93137 -9.25627 15.2886 -19.4473
437 146 2 0.778876 -3.57451 -7.62026 -0.574137 -5.79597 6.3108
304 102 1 3.44076 -0.890323 -7.03399 19.2855 33.0547 -10.837
305 102 2 2.91203 -0.145637 -7.52368 4.64955 -4.81968 -2.44101
351 117 2 6.01314 -5.24059 -7.49064 30.1566 -3.9053 11.7316
119 40 2 4.12776 -2.79619 -4.38611 -25.8912 -14.1591 -12.8878
544 182 1 4.00198 -5.03115 -7.60294 27.4619 6.8059 -10.9916
546 182 2 3.33343 -5.80537 -7.50461 -10.4811 -7.31675 6.5162
118 40 1 3.36148 -3.4724 -4.62069 30.6143 6.05299 26.8847
545 182 2 3.56914 -4.18664 -7.23332 -4.8535 1.70177 1.85173
58 20 1 2.49824 -7.11678 -7.11675 -16.2329 -1.62156 18.0803
349 117 1 7.05825 -5.37986 -7.41501 -52.6693 16.6541 -1.07877
120 40 2 3.61179 -4.29118 -4.02603 -0.689982 8.52365 -16.3257
504 168 2 5.54926 -0.607567 -3.71491 -12.856 -7.04141 5.90761
16 6 1 4.91578 -5.60795 -3.51077 -22.6863 -14.3771 -11.8996
17 6 2 4.43402 -6.47008 -3.82073 10.8065 16.546 3.30752
328 110 1 0.68367 -3.90009 -3.87487 -19.0476 -0.35354 9.7097
329 110 2 1.49633 -3.76742 -4.48457 11.8626 -1.49512 8.103
347 116 2 -0.958586 7.23957 -9.67466 3.27443 -12.2343 19.489
318 106 2 -5.93081 2.30111 -9.05838 -8.67481 -7.45938 -7.32454
619 207 1 -0.394362 5.59601 -9.44554 0.157059 13.094 1.205
123 41 2 -2.74992 2.1494 -9.50835 7.35401 -7.39572 -4.86854
122 41 2 -1.92289 3.14958 -8.43573 -14.9396 -8.72062 -7.05892
121 41 1 -2.85945 2.87407 -8.78311 6.59807 19.9528 7.69582
316 106 1 -5.46923 2.25272 -8.16251 5.40028 6.90338 -1.97928
317 106 2 -4.47454 2.44184 -8.33692 8.76317 -2.83065 6.22126
456 152 2 -0.117782 0.553228 -7.04491 2.0265 -2.5395 -6.01514
576 192 2 -4.53733 1.09458 -4.24358 6.45746 -5.77469 4.24672
575 192 2 -3.11748 1.75109 -4.70697 7.92332 -1.79826 2.69984
620 207 2 -0.17601 4.83644 -8.81803 0.338177 -12.7811 15.6564
455 152 2 -0.179291 1.64434 -8.31682 -2.47292 5.468 3.9678
454 152 1 -0.101747 0.647083 -8.09106 -8.47102 2.68256 -0.725393
474 158 2 -6.92939 2.01042 -4.25832 -6.50715 3.04542 -5.85931
53 18 2 -2.46027 3.93996 -4.85038 -0.0435638 9.40089 10.1539
52 18 1 -1.91862 3.17262 -5.23574 -7.59302 -8.21047 -17.7445
473 158 2 -6.62942 0.751756 -5.41814 -6.6314 -0.661604 -11.7295
472 158 1 -6.34803 1.2472 -4.58356 21.6766 -0.345066 20.0711
380 127 2 -5.76485 3.92552 -7.80679 -13.621 6.70376 8.88831
381 127 2 -5.74634 5.57792 -8.18042 -21.3531 -21.305 18.0362
379 127 1 -6.2386 4.83394 -7.60633 29.296 14.9145 -27.3868
280 94 1 -3.32131 5.52301 -4.2337 -9.45334 4.33943 -24.7452
282 94 2 -2.83242 6.18101 -4.8654 -0.840157 -2.23608 12.8446
281 94 2 -4.25101 5.34859 -4.68777 11.1925 4.14994 14.7237
470 157 2 -6.2297 5.22506 -5.9618 6.0954 9.06456 -4.65721
492 164 2 -4.76328 7.2425 -3.36325 -4.87044 27.8705 9.96073
412 138 1 -5.41344 6.77675 -9.57888 -16.8354 13.1635 3.13853
501 167 2 -0.66374 3.69345 -7.18824 -5.8981 -10.7594 -9.81181
499 167 1 -0.0129442 3.30888 -7.89211 -4.0802 26.7374 31.4477
469 157 1 -5.95869 5.62636 -5.04223 6.47509 -4.76343 -14.9576
180 60 2 -5.54531 7.21399 -5.42244 -12.0279 0.949882 -3.95816
471 157 2 -6.46436 5.02236 -4.40315 -8.82859 -6.41898 23.0035
574 192 1 -3.50894 0.993554 -4.13696 -15.569 9.98162 -10.6141
54 18 2 -1.0246 3.02121 -4.79026 7.94962 2.2603 7.62345
601 201 1 5.23294 7.09245 -9.16897 -6.78613 -2.70559 11.9494
269 90 2 6.68614 4.39873 -9.19571 12.2647 11.1526 30.49
38 13 2 2.80476 1.91215 -9.29423 -6.5177 -11.7088 -0.750356
37 13 1 2.56717 1.13143 -8.65009 -10.4516 11.2026 6.61316
39 13 2 1.5936 1.27932 -8.31318 15.7469 -10.1262 -9.53639
287 96 2 6.45186 1.31766 -9.67261 -21.4582 -11.6237 9.96626
286 96 1 5.58188 1.56118 -9.14716 20.4677 14.773 -13.4894
531 177 2 1.02356 0.342958 -5.24905 -0.0506483 6.14243 -12.6076
529 177 1 0.0425016 0.362358 -5.53724 12.5503 -11.3134 33.9428
611 204 2 1.19919 4.7925 -5.5468 0.365059 3.38142 9.12951
341 114 2 3.99121 2.69395 -4.37301 16.0147 -6.94163 -12.6082
340 114 1 3.3624 2.21398 -3.73387 -34.5824 4.92548 29.7111
612 204 2 1.81795 3.53245 -4.6196 3.1762 -1.75293 -3.91963
310 104 1 0.965262 6.36204 -4.93766 -15.1583 5.14263 15.6058
311 104 2 0.319268 6.3699 -4.12872 1.91637 1.81413 -20.0393
288 96 2 4.8192 0.881718 -9.12706 5.59426 -3.17583 -1.90575
588 196 2 4.98535 4.26286 -5.96197 -3.5991 11.9571 -31.6042
59 20 2 3.01172 6.55855 -7.27124 11.662 -13.3418 -4.27351
60 20 2 1.94557 7.21108 -6.2622 -1.31561 7.10261 -11.9568
372 124 2 3.81759 4.68813 -8.00142 -24.1855 -27.9575 -33.4593
587 196 2 5.83274 3.78455 -4.62315 23.6997 -2.36072 7.11545
586 196 1 4.93983 4.05505 -4.98394 -18.5041 -6.24084 31.7754
610 204 1 1.32522 3.77365 -5.48182 -3.78885 -7.58423 -9.83261
370 124 1 4.32023 5.18861 -7.33555 30.9415 43.0183 16.8385
371 124 2 4.8727 5.92242 -7.8324 -5.89848 -14.1331 3.00633
547 183 1 3.3162 5.81807 -3.4768 5.54496 0.911635 -0.851661
549 183 2 4.03866 5.30788 -4.02632 -9.48316 0.515098 4.61165
500 167 2 0.795117 3.42548 -7.25089 4.94463 -10.7479 -10.6894
342 114 2 3.35356 1.18012 -3.54903 14.5397 14.0348 -14.9386
312 104 2 1.86819 6.35469 -4.47524 21.154 -3.04682 7.47589
534 178 2 -2.03846 -6.78935 -2.74157 -6.37029 -4.27055 -6.99772
626 209 2 -4.03902 -3.56716 -2.66382 7.74181 6.67688 2.83705
532 178 1 -1.89917 -6.11561 -1.99661 -5.99858 2.85159 -10.4902
533 178 2 -2.62872 -6.13897 -1.30059 -13.7396 -2.15935 4.13437
490 164 1 -4.94689 -6.59963 -2.59949 6.67595 -29.6227 1.09292
491 164 2 -4.94416 -5.59201 -2.85911 2.501 -3.76803 -12.6222
577 193 1 -3.24743 -1.22678 -0.829533 23.7019 -12.3089 27.2318
47 16 2 -3.39333 -3.75411 1.8833 -1.78463 -11.0926 -24.2837
46 16 1 -3.65395 -3.31065 2.74046 -0.254278 5.83938 17.7759
48 16 2 -2.94361 -2.59685 2.88948 -1.20888 10.1817 3.06661
579 193 2 -3.77113 -0.371293 -0.90729 -8.68898 11.1912 -6.09672
158 53 2 -0.781528 -6.51945 2.71437 0.238172 -1.29105 -10.7485
507 169 2 -1.99496 -0.534127 2.93893 -2.53855 -13.5392 -16.422
297 99 2 -5.27153 -6.49988 0.0513971 -0.0563082 5.23839 -3.39684
4 2 1 -3.19198 -3.97709 0.0816884 -12.9695 19.3695 1.53574
6 2 2 -2.1993 -3.97127 0.291569 16.9517 -1.36114 -0.443819
420 140 2 -6.53607 -2.61698 -1.87754 -38.6984 0.0342713 11.3359
635 212 2 -2.52603 -1.54689 -2.78294 -5.43742 5.6866 3.16194
505 169 1 -2.31489 -0.936314 2.03354 -17.57 12.989 3.4676
485 162 2 -6.37833 -6.63051 1.78706 7.54109 -5.16995 6.36502
506 169 2 -3.20166 -0.411824 1.82233 13.533 -6.54473 9.60944
567 189 2 -6.72359 -5.09499 0.268344 -17.8555 3.95297 4.20225
578 193 2 -2.62743 -1.12987 0.00770331 -11.0597 0.228331 -19.7335
296 99 2 -4.73739 -4.88134 0.392593 26.4879 17.6694 -15.8808
295 99 1 -5.30416 -5.6621 0.653142 -22.1666 -25.2152 12.8814
615 205 2 -3.09839 -6.17295 1.1236 -3.61565 -3.11815 4.7092
138 46 2 -7.21563 -1.10822 1.23442 -28.0931 -16.1663 10.8188
152 51 2 -0.0513817 -1.17933 -1.79378 -8.51671 11.7091 2.94336
513 171 2 -0.648166 -5.8115 -1.43731 7.23484 16.4397 3.62571
211 71 1 -0.632464 -2.87314 0.936563 -10.1366 30.8614 13.6478
212 71 2 -1.28919 -2.12199 1.31157 30.1975 -22.4725 -8.72576
136 46 1 -7.04545 -0.105106 1.30194 50.3461 36.4852 -16.9003
5 2 2 -3.42 -2.98026 -0.112469 0.360123 -14.0795 -5.19846
484 162 1 -6.47659 -7.2295 2.61969 -28.4437 11.4521 11.1522
613 205 1 -2.38368 -6.89638 1.16965 5.5679 -0.123835 -8.32593
418 140 1 7.01907 -2.66176 -1.47503 67.1351 -21.5668 1.70038
419 140 2 6.39918 -2.09876 -2.01273 -28.3182 23.4851 -19.4369
566 189 2 6.89702 -3.99138 -0.627918 -6.53984 -6.93901 10.5305
565 189 1 6.83137 -4.7221 0.130358 15.1933 4.2745 -10.5675
486 162 2 7.12897 -6.9528 3.05852 21.2605 -4.37117 -11.7861
12 4 2 6.67454 -3.28326 1.03327 2.53437 -7.12805 -3.27162
10 4 1 6.64423 -2.50833 1.70562 9.8511 -0.710472 -33.0407
539 180 2 1.92539 -2.05929 -0.705617 -3.42132 -5.0161 17.167
502 168 1 5.17071 -1.06101 -2.85991 38.2045 -8.8668 -10.2448
503 168 2 4.20125 -0.782955 -2.6874 -10.0325 11.1788 -4.1575
538 180 1 1.98368 -1.99887 0.33164 -32.6147 14.9351 -18.8625
540 180 2 2.77827 -2.37865 0.78566 32.2266 -19.5432 14.3397
151 51 1 0.619568 -1.90736 -1.96398 17.5847 -1.88641 -3.32666
261 87 2 3.15115 -1.23966 2.74158 2.82398 4.01516 0.233345
512 171 2 0.107288 -4.73147 -0.395943 -5.33687 29.4629 19.7172
398 133 2 4.88396 -2.71148 1.54703 16.5777 -4.0707 4.18282
397 133 1 4.06669 -2.5414 2.12113 -48.2899 -9.69815 18.6678
399 133 2 3.71448 -3.35896 2.70883 10.5338 16.406 -19.4646
511 171 1 0.262236 -5.5132 -0.981686 19.7665 -29.2733 -13.8836
181 61 1 2.75791 -0.137672 -2.8043 -20.2787 -1.09415 2.11351
183 61 2 2.23086 -0.97947 -2.61542 -1.45434 -19.1579 0.989432
213 71 2 0.357581 -2.51088 0.983581 -22.6779 -8.30116 -6.54646
278 93 2 5.95455 -6.2027 -0.501925 2.98357 16.941 6.56015
153 51 2 0.333255 -2.47056 -2.75453 -3.86721 -11.2886 -13.6355
277 93 1 5.82256 -6.85917 -1.26565 -2.88634 -10.576 0.902447
400 134 1 1.52284 -6.19548 1.55777 10.3199 22.0767 -2.07887
401 134 2 1.10383 -6.26293 0.63829 -3.24661 0.297752 -10.33
18 6 2 5.29062 -5.82698 -2.58553 6.40272 -3.70502 6.63052
321 107 2 3.14816 -0.588255 0.282885 -8.56145 -8.83529 -1.05792
330 110 2 0.856673 -4.24824 -2.91718 6.53273 -1.03384 -16.1028
402 134 2 1.30602 -6.97946 2.13093 -9.99165 -21.1905 13.0661
11 4 2 6.71073 -2.88771 2.61308 3.93236 -11.2104 35.6134
259 87 1 2.73556 -0.409327 3.21065 -5.85333 0.0275225 2.24633
389 130 2 2.10014 -5.01603 2.86295 -8.01721 -10.6903 -9.16821
537 179 2 -6.5454 0.583831 -0.37076 -6.32423 -10.3932 15.5751
536 179 2 -7.17631 0.926728 -1.8634 -10.8968 -8.69977 -12.9255
299 100 2 -0.18633 0.729495 -1.23696 3.22998 15.8959 -2.4664
535 179 1 -6.61247 1.26601 -1.11201 16.3875 20.0419 0.415051
256 86 1 -5.57334 3.83704 -1.15053 16.1169 34.5494 -4.02288
258 86 2 -5.76917 2.88405 -0.893511 -0.689511 -27.5763 2.52904
134 45 2 -5.93171 5.42934 -0.741078 -6.07268 -6.1448 7.0816
257 86 2 -4.54508 4.04682 -1.30379 -18.4221 -10.037 4.92981
99 33 2 -4.4083 5.78833 2.65894 -9.38593 0.477523 12.639
292 98 1 -3.0889 4.63355 -1.57395 27.8147 -9.65348 0.762216
562 188 1 -4.57972 0.63761 2.05698 9.06192 22.0243 12.6778
564 188 2 -4.79392 1.45765 2.6837 -4.27019 -24.0996 -6.80463
563 188 2 -5.47175 0.22572 1.76074 -12.6735 -0.494 -2.24868
135 45 2 -5.40873 6.78312 -1.38634 -4.92136 14.2024 -5.14607
133 45 1 -5.97517 6.45037 -0.596483 10.1376 -4.30421 -3.65655
98 33 2 -4.38213 6.02259 1.02885 9.91664 -26.2972 26.0011
293 98 2 -3.18432 5.11514 -2.47904 2.21998 -3.14329 -3.42894
294 98 2 -2.12 4.24029 -1.4982 -25.8729 11.8317 -2.36603
97 33 1 -3.94353 5.47655 1.81974 -8.34247 25.0127 -41.11
253 85 1 -2.95263 2.90865 1.78214 0.476533 48.2513 -18.727
614 205 2 -2.71571 6.75546 1.60437 -1.51097 6.03163 -0.639086
254 85 2 -3.22963 3.8962 1.47997 12.7555 -34.2302 19.5142
255 85 2 -3.78982 2.35922 1.76324 -10.4598 -13.781 -2.96703
231 77 2 -6.90455 3.74486 -2.327 14.0137 2.98065 -9.29162
648 216 2 -1.9255 1.51537 0.551876 1.11233 7.85481 4.68348
647 216 2 -0.460746 1.27493 1.26538 -0.288467 -6.69301 -3.75584
646 216 1 -0.970429 1.21983 0.364575 1.80921 -3.01324 -5.2983
86 29 2 -1.09935 6.3102 -0.225341 -4.78554 0.718647 6.49661
87 29 2 -0.150844 7.17174 -1.22375 9.57408 20.3008 -2.60532
85 29 1 -0.413936 6.23814 -0.970413 0.75818 -20.6106 5.90994
622 208 1 5.08633 4.65972 -1.44399 -14.9259 17.8381 20.4132
624 208 2 4.91887 5.3169 -0.651354 12.0722 -13.9538 -17.2202
230 77 2 6.32752 4.43536 -2.80018 -19.1928 9.66885 6.63628
548 183 2 3.57664 5.77515 -2.4813 1.3595 -0.722343 -11.75
229 77 1 7.18566 4.07935 -3.20202 3.80358 -12.5568 -2.42522
623 208 2 4.25573 4.03057 -1.39974 7.41735 -3.90444 2.20794
300 100 2 0.0976319 1.9536 -2.3423 -4.00038 12.8447 4.26386
182 61 2 1.98486 0.50898 -2.61628 -1.55362 10.5782 3.73206
279 93 2 6.72134 7.19176 -1.34208 2.03984 -5.04186 -1.96256
209 70 2 5.44742 4.9953 1.79776 8.14032 -43.495 -5.0371
208 70 1 5.77107 3.97278 1.75938 -7.57473 34.9412 7.57063
210 70 2 6.11666 3.80555 0.823844 2.45054 -0.150922 -5.35905
298 100 1 0.249115 0.969945 -2.14954 1.49485 -17.7992 1.65513
20 7 2 1.24299 3.98182 -2.34061 8.36202 -4.94651 1.6566
21 7 2 0.116896 4.87509 -1.59911 -9.93895 -4.51211 -4.87517
19 7 1 0.243493 4.03772 -2.21033 0.171492 0.356184 -0.865072
468 156 2 5.71927 2.21771 2.17834 -5.66874 15.1579 -0.549688
466 156 1 5.33242 1.28202 2.29991 -8.39057 -12.824 -11.4324
467 156 2 4.58315 1.08478 1.59331 16.0541 2.08333 11.911
137 46 2 6.72477 0.531835 1.56363 -19.4743 -13.1416 8.19824
319 107 1 3.34767 0.336603 0.639391 16.9502 28.5208 -18.1897
320 107 2 2.96144 0.416163 1.56564 -9.99944 -7.25359 19.1732
604 202 1 4.61997 6.31967 1.23611 2.66862 -15.1407 -9.04044
606 202 2 4.57282 6.84021 2.09596 -1.09754 13.9501 11.4926
605 202 2 4.65614 6.92558 0.426962 0.135637 11.4291 -3.32713
224 75 2 3.12108 2.70425 -2.11264 -2.89419 -0.090515 21.4038
223 75 1 3.00393 3.07945 -1.13458 -1.8276 -1.30948 -24.3786
225 75 2 2.6518 2.38595 -0.467596 3.98194 -3.09117 -5.08434
236 79 2 1.2375 0.342317 2.95255 -4.67859 4.46228 -13.6707
235 79 1 0.258241 0.633633 2.7552 6.69215 -17.5382 30.5583
159 53 2 -1.09882 -6.98527 4.19824 -4.16178 3.8038 21.1161
157 53 1 -0.549513 -7.23442 3.39247 9.30461 -10.9102 -14.4018
124 42 1 -3.1606 -2.18858 6.73768 -3.00773 13.5192 5.15073
303 101 2 -3.77238 -4.54137 3.69504 -6.25822 4.51303 -2.42404
125 42 2 -3.81475 -2.99016 6.81293 3.92866 3.99359 0.363995
598 200 1 -5.75183 -6.80973 5.24085 7.69323 27.4205 -9.10123
600 200 2 -6.00563 -6.88495 4.24586 -5.65623 -11.619 0.127258
599 200 2 -5.11169 -5.96444 5.12049 -11.9669 -29.1317 9.28019
301 101 1 -3.80197 -5.31918 4.37281 36.3833 4.45561 6.88014
302 101 2 -2.80622 -5.39658 4.68159 -22.0026 -5.53959 3.13013
51 17 2 -1.01171 -4.28527 8.732 8.22799 5.82636 7.53338
49 17 1 -1.67521 -4.92694 8.33999 -24.3014 0.315957 -7.47218
50 17 2 -2.644 -4.68299 8.62657 16.3453 -8.83225 -4.37497
495 165 2 -1.37209 -5.50586 6.44636 -12.5272 7.36692 27.9287
493 165 1 -1.07736 -5.66481 5.50195 5.14404 -4.37991 -17.3128
428 143 2 -5.61607 -3.83592 4.25285 12.2371 -6.51784 -18.6398
494 165 2 -0.0631243 -5.52169 5.45416 0.272516 4.98969 -0.782669
111 37 2 -1.86759 -2.33631 8.60486 -11.9521 -2.37456 -2.28964
109 37 1 -0.964878 -1.88494 8.61175 13.2365 -0.168788 5.32528
580 194 1 -6.57039 -5.95785 8.93416 10.5104 -31.5578 -8.74053
582 194 2 -5.89163 -6.68117 9.30689 -13.3432 13.1492 -7.63891
581 194 2 -6.65779 -5.27063 9.66765 0.406506 8.94462 19.1439
110 37 2 -0.677034 -1.67272 7.64814 2.03853 -0.713875 -5.08422
527 176 2 -7.1467 -7.19775 7.97308 9.87325 1.56236 -3.30337
427 143 1 -6.37222 -3.70748 4.88792 -1.44852 14.0488 20.1054
429 143 2 -5.91658 -3.39265 5.75535 -11.7121 -7.0413 -3.72933
63 21 2 -6.06415 -4.28015 7.69662 9.54732 -6.00459 4.12188
61 21 1 -5.14636 -3.82612 7.59736 -13.2891 3.11611 -28.6565
62 21 2 -4.86553 -3.39275 8.45777 5.91752 -0.353355 23.5866
126 42 2 -3.47876 -1.47371 7.43684 0.112879 -15.3839 -12.0835
27 9 2 -4.71336 -7.17812 6.48116 7.26691 -2.75373 1.61602
41 14 2 -4.89871 -1.26996 9.43209 3.70778 -9.17845 11.8363
42 14 2 -5.34844 -0.405794 8.12026 22.0294 -7.57046 6.08506
40 14 1 -4.52465 -0.819143 8.61132 -25.3758 20.8559 -16.5835
102 34 2 -6.58149 -0.34379 4.08322 -14.6506 0.492752 7.98555
238 80 1 -1.55328 -0.880543 4.76239 -22.6813 38.9637 -11.0279
240 80 2 -2.31797 -1.33026 5.3188 11.935 1.43342 -3.90634
461 154 2 -0.260177 -1.16421 5.57808 20.519 9.25857 38.6302
101 34 2 6.29258 -0.174329 4.47184 4.66477 -0.00185128 -7.25011
404 135 2 5.37454 -6.82837 4.30646 -0.0926426 12.4062 -4.64343
403 135 1 5.79793 -6.11004 3.67613 4.94181 -11.5712 -8.96709
78 26 2 1.91681 -6.99678 7.68259 -7.47391 -0.362352 -0.220445
260 87 2 2.80682 -0.632126 4.20367 1.85374 -5.5519 7.30827
411 137 2 3.1972 -3.89078 8.34376 5.19652 13.3848 -12.3726
410 137 2 4.5692 -2.85068 8.52864 -15.0691 -5.38529 -16.9989
409 137 1 3.73807 -3.10745 7.92902 16.9386 -12.7006 26.5638
405 135 2 5.58364 -5.13147 3.87179 -4.46211 -7.01591 8.17701
161 54 2 2.11917 -5.41209 6.63984 -16.7959 35.4563 -8.14313
162 54 2 0.99835 -4.06216 6.7637 6.74586 -1.92601 10.4094
390 130 2 2.61397 -4.55609 4.39816 -11.8472 -0.873961 22.3399
388 130 1 2.78746 -4.51026 3.40982 23.066 13.3045 -11.0966
160 54 1 1.61445 -4.59445 6.15709 10.995 -36.4302 -6.40277
77 26 2 3.52863 -6.93977 8.1411 -5.0448 4.27678 -2.17574
76 26 1 2.8143 -6.51483 7.54012 11.6762 -6.25671 6.08777
218 73 2 3.28608 -2.49362 6.55086 -13.6554 19.9029 -15.9137
217 73 1 2.86684 -1.7819 5.87127 10.5038 -7.48908 14.0955
375 125 2 0.485245 -3.18898 9.09564 -19.2747 23.4797 6.24536
373 125 1 1.2295 -3.84998 9.10515 26.0737 -23.2872 -1.71907
219 73 2 1.89434 -1.62532 6.20044 6.44154 -0.252793 -5.14862
100 34 1 7.24576 -0.24507 4.83262 8.56772 5.5113 1.93631
325 109 1 5.68608 -2.0475 9.4752 -17.4854 16.7863 -6.15687
460 154 1 0.370611 -0.943203 6.42888 -12.0376 24.6625 -35.2814
107 36 2 0.07745 -0.512989 8.75801 -2.5342 -13.9898 12.3587
407 136 2 5.66489 -0.280664 6.6292 -15.9704 11.9295 -1.56341
408 136 2 4.10234 -0.65533 6.34613 2.362 20.7913 6.38696
528 176 2 -6.82588 6.79456 6.45318 15.2347 14.2354 -16.273
25 9 1 -3.95578 6.86221 6.99342 -3.1974 -11.0786 0.418849
26 9 2 -3.90029 5.91038 6.62479 5.66909 8.91543 1.51394
163 55 1 -2.00839 6.48029 9.05164 31.5197 -20.0696 -4.22642
91 31 1 -2.0484 1.69697 5.53167 5.06052 10.1531 27.2818
93 31 2 -1.13171 1.5346 5.96663 -0.373449 4.44435 -4.35959
165 55 2 -2.87389 6.4729 8.52467 -16.9116 9.1017 -9.00348
449 150 2 -1.79623 3.92941 5.72611 -0.687371 -3.03952 0.774115
450 150 2 -1.71196 4.99047 4.42569 -13.0884 0.150982 47.1437
448 150 1 -1.96944 4.88713 5.45221 13.7899 1.73072 -51.5714
167 56 2 -5.54614 3.30066 4.51405 -7.48881 17.0448 18.0861
168 56 2 -4.04694 2.68584 3.79272 -7.571 15.4439 14.9236
166 56 1 -5.0731 2.68489 3.87988 23.0106 -38.8159 -39.3786
92 31 2 -2.60088 2.11495 6.31119 -1.01468 -14.1068 -14.3788
239 80 2 -1.70091 0.177646 4.79683 -5.09895 -35.2985 7.1673
435 145 2 -4.52902 1.95001 7.89674 -8.4952 6.82546 -7.84929
417 139 2 -6.42549 2.67018 6.69161 -3.59824 18.698 -8.67259
433 145 1 -3.54158 1.83767 8.10528 4.17935 -18.9749 8.51489
337 113 1 -7.08013 3.82728 5.33004 -37.8883 9.25967 -15.1545
338 113 2 -6.99671 4.83103 5.51291 0.0584023 -4.33962 -0.0746723
434 145 2 -3.49703 0.914788 8.57556 3.74732 13.5159 -8.03338
237 79 2 -0.248309 0.0576063 3.44425 1.59796 10.1256 -15.7532
415 139 1 -6.2912 1.7077 6.96464 -3.31481 -30.043 3.68953
416 139 2 -6.6446 1.13678 6.1742 6.56653 3.45327 6.86178
149 50 2 -0.435951 7.17522 8.37675 -5.7493 -4.71042 18.2328
150 50 2 -0.418767 7.25981 6.86825 16.5234 -5.71169 1.82145
465 155 2 -0.569961 4.25739 8.54854 -6.96262 5.96607 -5.10207
22 8 1 -7.20371 4.23347 8.62776 -31.4486 -26.2857 -7.87719
496 166 1 2.64802 5.1335 5.59649 7.21836 -5.67253 3.31711
526 176 1 7.19189 6.57302 7.2925 -25.8868 -7.03708 10.6694
88 30 1 4.85422 6.37993 5.14414 8.46089 2.96271 16.1825