ITEM: TIMESTEP
2500
ITEM: NUMBER OF ATOMS
648
ITEM: BOX BOUNDS pp pp pp
-7.3291425096485874e+00 7.3291425096485874e+00
-7.3291425096485874e+00 7.3291425096485874e+00
-1.6286983354774677e+01 1.6286983354774677e+01
ITEM: ATOMS id mol type x y z fx fy fz
388 130 1 -5.15243 -5.1429 -15.5074 -11.6919 -10.6708 16.438
389 130 2 -6.0562 -5.37006 -15.084 4.39848 -5.05727 5.43582
76 26 1 -3.91624 -3.69311 -13.228 19.6301 -1.346 3.21965
78 26 2 -3.01847 -3.18765 -13.1277 -3.82714 4.75259 2.5579
77 26 2 -3.8521 -4.09089 -14.1662 -12.6701 2.15802 -2.50731
205 69 1 -5.83557 -7.09395 -11.7871 5.92487 5.07156 -1.66666
206 69 2 -5.5872 -7.1074 -12.7826 -7.49143 -4.58199 4.85886
207 69 2 -4.95797 -6.79223 -11.3468 -1.36461 2.19644 -1.07181
527 176 2 -7.17537 -3.09166 -12.8115 2.37875 -4.28596 -9.11044
297 99 2 -6.71068 -0.365114 -15.0225 -7.97146 -10.0523 -0.186364
114 38 2 -0.493859 -2.71219 -12.7999 -5.57912 8.19044 -3.85568
112 38 1 -1.45075 -2.32019 -12.7609 4.28908 -1.38212 2.19338
113 38 2 -1.43364 -1.35465 -13.1267 -2.12291 -4.44696 -3.35011
269 90 2 -3.70382 -5.17084 -12.2835 0.902316 -5.38327 -2.78823
270 90 2 -2.66325 -5.26297 -11.0987 6.53516 -2.03032 -2.08208
268 90 1 -3.28871 -5.87341 -11.6484 -7.02882 10.4879 8.21326
89 30 2 -6.87299 -1.21608 -11.9744 -2.56588 3.69104 7.73145
516 172 2 -1.01363 -5.10952 -14.8063 -8.98106 1.33913 5.4042
515 172 2 -0.274231 -6.14217 -13.7428 1.44424 -2.62068 5.6949
514 172 1 -0.348461 -5.16527 -14.015 17.5371 9.93532 -2.07827
425 142 2 -3.05708 -6.80634 -9.99139 -5.40376 -7.1288 -1.72696
75 25 2 -1.67916 -3.23807 -11.3696 10.9733 2.56595 -3.51757
121 41 1 -6.08833 -2.99997 -11.7015 5.57413 -1.02187 8.52562
122 41 2 -5.13412 -3.03374 -12.0907 -1.08482 0.305978 -8.7393
123 41 2 -6.13314 -3.80499 -11.068 -7.12875 3.89327 9.29566
73 25 1 -1.57418 -3.95558 -10.6352 -21.9823 -10.7364 13.2424
74 25 2 -0.625742 -4.2346 -10.4234 7.78704 4.19227 -5.01307
363 121 2 -0.110976 -7.16376 -11.2609 5.22003 8.14879 1.37447
200 67 2 -3.27808 -5.15841 -15.589 2.61274 -6.36651 -5.77103
585 195 2 -1.51862 -6.80685 -15.3485 -1.51946 5.71637 -4.92086
199 67 1 -2.28071 -5.37972 -15.7628 -11.1119 -1.92126 2.59332
9 3 2 -0.913303 -0.425157 -16.149 5.86447 6.07884 -1.42743
191 64 2 0.0502546 -0.761503 -10.6831 5.32647 -7.86063 5.3111
526 176 1 6.92522 -3.06121 -13.6972 -11.4252 -2.83102 -7.13518
528 176 2 6.99952 -3.94711 -14.2189 -0.664672 1.91779 9.6128
295 99 1 6.97655 -0.741994 -14.9788 4.57782 10.4906 1.11642
296 99 2 6.92417 -1.69932 -14.5706 7.83872 1.1994 -2.14129
643 215 1 4.40323 -0.280777 -15.8255 6.95839 3.39796 -13.1889
644 215 2 5.40352 -0.488921 -15.6337 -4.14737 4.29272 10.787
90 30 2 7.17246 -0.331259 -13.1759 -4.62096 3.07353 5.69135
169 57 1 2.68834 -5.52597 -11.1579 -20.387 9.35459 -14.9632
170 57 2 3.05817 -6.46733 -11.3052 9.41687 4.90932 5.08189
171 57 2 3.39072 -4.83649 -10.8703 12.1192 -7.37446 11.4173
352 118 1 1.14276 -0.584484 -11.9482 -6.04696 11.4866 5.65354
354 118 2 1.71102 -1.43585 -11.9359 -4.75029 -1.55307 -5.00555
154 52 1 0.342377 -1.17722 -15.2136 11.3855 -8.94279 -4.79576
155 52 2 0.719792 -2.08099 -15.5343 -4.34989 -0.648053 3.03173
156 52 2 1.13047 -0.691039 -14.767 -4.38138 3.37435 1.75699
88 30 1 7.18498 -0.389939 -12.1429 5.97686 -17.5662 -11.1157
55 19 1 1.2908 -3.45547 -12.6044 2.93757 11.3676 12.2873
56 19 2 2.00421 -3.9455 -12.0508 -3.97543 -5.88291 -4.7533
235 79 1 5.83142 -7.05567 -12.5702 5.59715 -14.5923 7.64049
57 19 2 0.763641 -4.1193 -13.1766 -4.73116 -9.15051 -4.25071
329 110 2 6.14431 -6.43956 -13.988 6.97671 7.88323 1.80699
328 110 1 6.63014 -5.92217 -14.758 2.46863 7.59364 -15.8031
330 110 2 6.12817 -5.97202 -15.6469 2.54199 -2.25973 8.06472
362 121 2 1.10823 -6.02616 -10.7747 -0.161411 -14.9599 -2.55911
300 100 2 0.746145 -4.30129 -15.1652 -3.56752 -9.20538 0.280773
620 207 2 5.48302 -0.193892 -12.1321 -8.85915 -0.926389 10.2124
161 54 2 3.48295 -2.61534 -13.3395 2.09079 -4.65791 5.02117
361 121 1 0.438148 -6.76358 -10.4668 -7.65913 1.34717 0.058357
162 54 2 5.09103 -2.66393 -12.9566 -0.700606 -7.58168 2.47866
160 54 1 4.15091 -2.90603 -12.6176 -1.47354 9.09841 -6.66986
298 100 1 1.44314 -3.80221 -15.7156 9.50164 20.1384 -1.71144
621 207 2 3.87491 -0.220054 -11.393 18.35 -5.04324 1.65173
26 9 2 3.54988 -6.61908 -14.8661 -7.31901 -6.85377 9.31202
25 9 1 3.16726 -6.53404 -13.9202 8.08012 8.08214 -16.1146
27 9 2 3.26532 -5.54464 -13.6777 -3.56492 -7.12772 7.47631
237 79 2 6.62892 -7.11121 -11.9134 -11.5213 1.42428 -7.99812
261 87 2 5.31635 -3.76395 -9.80397 1.64966 6.50949 2.40913
179 60 2 3.61253 -2.22998 -10.9505 8.26822 -2.55374 -0.352213
549 183 2 6.59061 -0.309271 -10.2677 1.87789 10.0706 -0.0304689
178 60 1 3.32645 -1.60557 -10.1877 -12.4717 0.844225 -3.09148
369 123 2 -3.02197 6.91642 -12.6886 -7.05748 -10.5763 0.926233
214 72 1 -5.11803 0.416856 -14.5552 10.265 7.5213 10.1165
215 72 2 -5.41875 0.988921 -13.7467 -1.38882 0.0691633 -1.68702
368 123 2 -4.1144 5.6152 -12.4142 7.17614 -0.333564 -2.91076
367 123 1 -3.62964 6.1944 -13.1185 -4.61008 12.743 5.7612
198 66 2 -2.8568 4.10633 -11.7624 -0.184319 1.3106 5.32194
583 195 1 -1.01205 6.96139 -15.2382 2.81027 -3.06206 -3.35634
639 213 2 -1.48962 1.24614 -14.0691 -0.308964 -3.46593 -7.59547
196 66 1 -1.84836 4.31581 -11.6331 0.766917 14.2662 -3.031
447 149 2 -5.13009 3.35787 -11.7807 6.03364 -1.56617 -1.5289
187 63 1 -3.55223 5.95237 -15.7061 12.4645 -22.4901 -27.7349
445 149 1 -4.4234 4.01813 -11.4118 -18.6178 0.631923 11.5838
588 196 2 -6.51645 1.17453 -11.8911 17.5624 10.817 -7.14096
197 66 2 -1.28648 3.50434 -11.8511 5.38855 -11.6236 -1.54269
637 213 1 -1.95628 0.511455 -13.5142 0.65744 2.51227 13.169
638 213 2 -1.71031 0.762474 -12.5477 -3.07621 -1.53009 -5.02398
334 112 1 -0.937011 2.42309 -15.0818 -7.50325 11.6477 9.03387
335 112 2 -1.69426 3.10902 -15.0979 5.05717 2.77777 -1.56392
624 208 2 -1.081 7.03743 -13.5209 -2.90771 -27.7916 2.97689
622 208 1 -0.960011 6.93445 -12.4984 11.317 20.1977 13.8163
586 196 1 -6.14095 1.96854 -12.4594 -11.3389 -17.7948 7.649
623 208 2 -1.11272 6.02686 -12.0264 -7.51129 -7.49569 -20.2678
517 173 1 -6.48029 3.79087 -15.994 0.189935 -21.6847 -12.0363
518 173 2 -7.18119 4.07804 -15.2787 6.74623 8.5741 0.62261
446 149 2 -4.60322 4.12665 -10.3948 0.629434 -3.34895 -8.3049
189 63 2 -3.6046 6.06144 -14.6787 -8.32864 9.02967 6.48458
392 131 2 -5.34822 1.10481 -16.0185 1.31855 -3.13526 -3.33204
336 112 2 -0.00336159 2.88096 -15.0903 -7.50317 -10.6823 -6.9355
542 181 2 -0.495253 4.20224 -10.1393 -5.4452 9.25576 -14.9812
587 196 2 -7.02356 2.30556 -12.8665 4.04859 11.0047 -0.377501
379 127 1 -0.346983 1.61598 -11.4761 1.37733 0.109143 -2.2231
449 150 2 -6.53368 7.20861 -10.2829 1.82347 -10.8233 1.71456
216 72 2 -4.08803 0.469533 -14.5254 -7.18467 -7.25398 0.24695
584 195 2 -1.63792 6.30098 -15.7198 1.38742 -3.73342 5.28862
8 3 2 -1.44267 1.11913 -16.1541 6.06357 13.1835 4.86454
353 118 2 1.45825 0.0359781 -12.717 0.771721 -13.0317 -1.63503
323 108 2 3.14944 0.0668465 -14.9069 -4.3068 -4.27517 14.2253
236 79 2 5.09378 6.92241 -12.3057 6.22503 3.34415 5.21229
280 94 1 6.61411 4.80668 -14.269 -18.0238 10.0179 -3.69569
281 94 2 6.12859 4.26467 -13.5436 1.51487 -2.40644 7.95837
282 94 2 6.40489 5.80576 -14.2256 1.89216 -2.6365 9.01233
322 108 1 2.49147 0.210727 -14.095 14.9287 11.07 -10.5814
324 108 2 3.14686 0.348187 -13.3 0.710156 -2.68057 -5.88625
504 168 2 6.32588 3.12229 -11.4564 -8.39777 -6.91236 5.22804
292 98 1 3.77474 5.8386 -12.0232 25.7779 2.27827 -27.9605
293 98 2 3.407 6.51556 -12.717 -12.7216 -6.63289 16.5107
294 98 2 3.338 5.65463 -11.1158 -11.1032 14.4007 3.60066
17 6 2 0.857098 6.56412 -15.9672 7.43367 -6.9493 3.27377
619 207 1 4.48973 0.106668 -12.1592 -11.2996 12.1575 -9.85535
97 33 1 1.69561 2.66344 -15.6485 3.79642 7.65448 -7.73258
98 33 2 2.32599 3.48001 -15.6696 4.55554 -14.5299 9.72093
99 33 2 1.99828 1.82951 -15.1226 3.21681 10.6987 2.7009
380 127 2 0.374977 2.29832 -11.1519 -16.5737 -2.00208 -2.32542
502 168 1 5.98458 2.82132 -12.3686 -2.2524 4.23359 -16.3716
381 127 2 0.0956675 0.694451 -11.5479 6.44768 -0.0351343 -3.42271
541 181 1 0.4274 3.79931 -10.3024 13.2184 3.37656 34.7957
503 168 2 5.3878 1.98433 -12.3836 -0.22054 3.37203 11.15
306 102 2 2.09553 4.94033 -9.87375 2.62655 -9.73338 1.77077
18 6 2 2.20441 5.4852 -16.1223 6.47775 4.92056 7.99562
244 82 1 3.99822 4.73015 -15.7036 15.3227 -20.986 -16.7072
245 82 2 4.91725 4.74024 -15.2694 -2.04898 8.99103 18.3699
190 64 1 -0.381891 -0.922975 -9.75889 -8.3456 1.65099 -4.1311
192 64 2 -1.12513 -0.222928 -9.63705 1.82298 6.08395 4.97242
531 177 2 -4.19566 -0.685886 -9.40149 4.48733 1.4564 -3.33842
128 43 2 -1.20655 -1.78653 -8.69221 3.4721 0.68478 12.504
127 43 1 -1.71987 -2.27651 -7.92164 -5.14309 -6.3562 -23.43
81 27 2 -0.370916 -3.17786 -7.021 -4.0433 4.27985 6.1289
129 43 2 -2.2249 -3.01339 -8.43968 6.31472 3.45585 12.4366
22 8 1 -1.74173 -5.14307 -7.26089 -17.7164 -24.6986 -23.5108
24 8 2 -2.50411 -4.93223 -6.63207 0.335054 3.01977 8.54451
23 8 2 -0.816365 -4.97076 -6.83745 -2.36381 6.60041 5.1724
238 80 1 -0.328771 -2.87571 -4.07265 11.9949 -4.62301 15.2411
239 80 2 -0.462457 -3.55516 -3.30119 -7.13041 12.1846 3.75933
490 164 1 -6.72028 -2.23408 -4.97422 -14.7925 -0.982623 10.0995
492 164 2 -6.25001 -1.3624 -5.20853 4.93839 -3.86439 -3.61094
11 4 2 -6.47344 -4.27756 -8.22919 1.36389 -1.20596 -2.28932
10 4 1 -6.62657 -4.61576 -9.19853 1.32868 -0.380188 -18.3949
12 4 2 -6.80543 -5.61217 -9.12468 -2.09143 -2.97998 -1.45461
94 32 1 -4.00346 -0.743732 -3.74314 11.6984 -1.08134 -4.31104
424 142 1 -3.05028 -6.9751 -8.97957 6.57941 7.53795 -10.1742
426 142 2 -2.4909 -6.18165 -8.64609 -1.0484 2.80118 13.0489
210 70 2 -5.42174 -7.10681 -5.04015 2.5047 -3.96815 -7.71408
208 70 1 -6.03002 -7.09882 -5.87716 -9.61711 10.524 5.19796
96 32 2 -3.53978 -0.881584 -4.64799 -8.69756 6.33285 -3.6846
412 138 1 -2.71178 -0.230789 -6.39343 -22.2377 2.68171 15.6769
414 138 2 -2.44441 -1.05249 -6.96122 14.8397 6.53877 -2.39312
232 78 1 -6.37787 -4.38321 -6.66709 -4.81692 -0.968513 21.5472
233 78 2 -6.00628 -5.17165 -6.1244 1.45011 -1.71572 -3.16303
240 80 2 -0.94646 -2.05943 -4.0455 -6.86494 5.48005 11.7748
491 164 2 -6.56874 -3.02422 -5.61781 6.33756 5.58009 -6.56566
250 84 1 -1.31051 -0.353956 -3.60976 9.265 -3.1719 -0.243587
172 58 1 -4.42824 -6.82678 -3.31723 3.97004 -5.56562 -4.06343
20 7 2 -5.54643 -3.58479 -3.46768 -1.40388 0.339565 3.74774
79 27 1 0.16768 -3.71586 -6.32696 24.1854 -4.64413 -29.0625
80 27 2 0.0502091 -3.32423 -5.36531 -10.1942 0.774523 0.164258
470 157 2 0.934127 -6.41644 -6.42055 -7.47265 -5.75901 11.0169
469 157 1 0.678469 -6.62254 -5.41947 -0.427783 -2.78953 -10.2633
471 157 2 1.54228 -6.50193 -4.88604 -2.1672 -7.7618 0.30298
464 155 2 6.07121 -2.03889 -4.77553 -5.62893 -17.1428 11.9111
141 47 2 0.822116 -0.307002 -5.12454 0.0177894 5.17986 -1.88022
150 50 2 4.87589 -7.27988 -8.41703 -8.42271 5.02235 -10.0609
601 201 1 1.03938 -6.16564 -7.98863 -0.923094 -0.157398 13.1602
602 201 2 1.24679 -5.16701 -7.94756 0.440173 -1.69327 -5.27059
259 87 1 4.47458 -4.25993 -9.53478 10.9899 -10.0281 -4.17402
260 87 2 4.79702 -5.23313 -9.38197 -8.45888 0.617869 1.8553
148 50 1 5.23194 -6.96643 -9.32371 10.2042 -4.09785 18.9811
603 201 2 0.5977 -6.4771 -8.87522 8.33716 6.0803 -2.10007
483 161 2 5.50596 -1.9981 -6.61663 0.316169 1.14841 -2.9178
481 161 1 5.51265 -1.80996 -7.627 -14.3071 0.777969 -1.91375
465 155 2 4.55046 -2.82703 -4.27766 10.2876 -8.40281 4.24444
482 161 2 4.60388 -2.13143 -7.9789 9.64452 -0.739194 -1.29202
139 47 1 1.59565 -0.792189 -4.68729 -13.3098 -5.30553 -0.725962
463 155 1 5.03453 -2.11134 -4.80448 12.7507 14.8809 -12.072
83 28 2 2.779 -4.8135 -4.41926 8.11689 0.800007 -3.99658
548 183 2 5.85249 -0.462385 -8.81854 3.22541 -5.28225 7.84415
140 47 2 1.25625 -1.75916 -4.59109 8.22769 3.45275 3.74375
82 28 1 2.6196 -4.628 -5.4268 4.72544 -1.8002 14.9191
478 160 1 5.39512 -5.08323 -6.13252 0.996635 12.662 -11.6184
479 160 2 4.38381 -4.9157 -6.27913 7.79627 -4.04835 8.33016
480 160 2 5.61072 -5.81677 -5.45143 -4.44015 -7.80047 0.276063
180 60 2 2.48614 -2.00996 -9.76579 7.34187 4.40008 1.71676
84 28 2 1.60049 -4.55598 -5.46575 -2.4489 6.75607 -18.2779
340 114 1 6.14211 -7.25435 -4.64739 -11.0151 -27.0848 4.35112
234 78 2 7.26557 -4.54766 -6.66108 -7.14696 2.39076 0.193664
594 198 2 4.65675 -0.555282 -4.84888 -12.2492 -16.2628 -6.51397
283 95 1 -4.91847 4.16496 -8.53595 -0.0154453 9.38566 -14.1102
484 162 1 -2.20092 1.20994 -8.9764 6.63262 2.13628 -21.5361
486 162 2 -1.72728 1.96319 -9.49228 -3.38249 -6.80391 7.59341
485 162 2 -3.19643 1.28424 -9.2286 -0.239429 -5.65101 6.31501
606 202 2 -0.583404 2.56607 -7.90512 0.42176 2.97036 1.77409
448 150 1 -6.90055 6.81616 -9.3935 -0.51481 11.2453 -1.73979
450 150 2 -6.40645 5.96938 -9.11668 2.57815 -3.66691 -1.81702
455 152 2 -2.89358 5.98607 -6.69588 -6.78425 5.22709 11.8481
529 177 1 -4.77255 0.105669 -9.66011 1.22443 -8.50508 1.31609
530 177 2 -5.62501 0.0110641 -9.12156 -6.9526 8.69126 0.650745
285 95 2 -4.45015 4.70222 -7.80611 -6.65006 4.56876 5.09974
284 95 2 -4.94712 3.18642 -8.18496 4.01012 0.000536884 1.80017
456 152 2 -3.79869 6.80811 -7.72994 -2.19907 -1.99106 12.0167
181 61 1 -4.32574 1.99015 -7.22362 11.1883 -20.1348 28.434
182 61 2 -3.58988 1.27932 -7.0948 -7.49311 -2.6748 -20.9623
454 152 1 -3.87398 6.26549 -6.83746 18.6203 -5.86134 -30.7161
183 61 2 -4.38105 2.22549 -6.22217 -10.6649 15.6128 -5.61088
618 206 2 -4.16131 2.86397 -3.85681 -9.9105 -0.569368 -4.77633
209 70 2 -5.53007 7.2651 -6.73002 3.37856 -4.62468 16.9624
616 206 1 -4.05515 3.21931 -4.82133 -0.335079 11.1038 9.94465
617 206 2 -4.44477 4.17076 -4.89603 4.06893 -9.39403 0.381829
443 148 2 -6.48219 2.19992 -3.83172 1.16693 -13.5 -14.4791
413 138 2 -2.03799 0.514237 -6.2221 8.57721 -9.6569 -9.24919
562 188 1 -1.94171 3.98166 -8.2357 -5.50588 12.9877 7.43199
563 188 2 -1.73971 4.75064 -7.58152 23.8807 -4.10903 -1.75767
564 188 2 -2.77084 4.38603 -8.64719 -8.40274 -13.5599 -15.3579
321 107 2 -2.48161 2.70963 -4.65883 -13.6376 -0.782949 -2.97207
312 104 2 -0.267261 6.8389 -4.3555 4.23743 -10.4578 -2.91715
310 104 1 -0.776522 6.05842 -3.91032 -19.4908 23.4925 13.5416
311 104 2 -0.28529 5.17178 -3.88254 17.2073 -4.93308 -11.2139
319 107 1 -1.52183 2.37127 -4.56975 8.31517 -5.6382 -2.32559
477 159 2 -0.433814 6.71788 -6.57113 3.71626 1.46977 1.273
476 159 2 -1.50363 7.05161 -7.8077 8.75068 -7.60725 4.55897
475 159 1 -1.06335 6.29575 -7.2575 -14.7992 8.9886 0.554879
320 107 2 -0.96807 3.1751 -4.86555 11.5161 -1.1991 2.94307
251 84 2 -1.33194 0.578012 -4.04271 -1.83011 6.37745 4.88726
539 180 2 2.63049 4.89826 -7.27833 -0.393428 7.3624 14.9445
543 181 2 0.504916 3.29652 -9.39356 12.4105 -2.29631 -6.33611
305 102 2 1.66384 6.44149 -9.73672 12.0129 8.75363 6.42854
540 180 2 2.74789 3.39799 -7.46748 3.19496 -13.3927 5.82376
547 183 1 6.26588 0.226704 -9.45656 -5.10703 -6.38891 -1.88444
604 202 1 0.436867 2.44659 -7.97875 -1.30783 -3.11677 -3.55273
605 202 2 0.879431 2.44189 -7.06696 -1.87445 2.41141 3.64293
304 102 1 2.48404 5.83733 -9.58589 -23.6649 -5.10129 -7.61643
632 211 2 2.23412 1.12079 -9.20068 -0.415678 7.0304 0.146234
149 50 2 6.18248 7.27182 -9.32879 -2.94286 5.02373 -8.44822
633 211 2 3.87033 1.02389 -9.29943 4.16178 4.19188 -1.77494
631 211 1 3.08796 1.6734 -9.271 -2.0407 -9.76114 3.78944
538 180 1 2.70565 4.05937 -6.6907 -0.377808 1.65564 -27.4646
442 148 1 7.25755 2.45517 -4.22187 -23.4943 27.0791 14.9561
444 148 2 6.94764 2.19198 -5.17139 21.973 -14.0905 -2.00705
341 114 2 5.73045 6.44892 -4.65377 -0.559553 12.056 1.54547
342 114 2 6.98606 7.22607 -5.20964 9.11375 14.0364 -0.370155
224 75 2 5.79139 3.86867 -5.06644 -10.8867 -0.313982 -4.72636
225 75 2 4.20251 4.14635 -5.77513 14.2445 2.81536 8.46492
223 75 1 5.01807 4.51792 -5.23904 -3.18712 6.57098 -2.19549
69 23 2 6.18737 1.23731 -7.81721 5.13265 -2.17483 0.415734
67 23 1 6.28672 1.41138 -6.81166 -4.57547 7.8096 8.03034
468 156 2 5.59394 2.30258 -3.28148 -0.3794 -0.334415 6.59656
230 77 2 1.11101 3.39282 -3.74725 7.46057 2.70944 1.30223
229 77 1 0.950753 4.00255 -4.56564 -12.8716 -6.88631 1.94745
231 77 2 1.70911 3.94492 -5.26053 3.24006 3.42646 0.530366
68 23 2 5.44782 1.09137 -6.31288 -0.320604 -4.99249 -0.779833
85 29 1 2.41771 6.83816 -3.41178 13.7747 -3.45138 11.7868
592 198 1 4.17793 0.282588 -5.21307 14.1108 43.6285 -4.1939
593 198 2 3.18751 0.164583 -5.41422 -4.48713 -15.8415 7.8395
467 156 2 4.53322 1.15674 -3.63607 -10.1074 -6.91878 -7.50223
86 29 2 3.2929 6.31253 -3.37493 -1.52738 -0.12958 -9.76486
95 32 2 -3.2449 -0.958573 -3.09019 -6.22649 -1.84096 3.28417
173 58 2 -5.06002 -6.10244 -2.95565 5.49492 8.91242 -3.37521
551 184 2 -3.36298 -4.9259 0.719664 -5.84305 -2.63834 1.18566
349 117 1 -0.828697 -4.20145 -1.64909 -12.2133 6.33666 2.899
351 117 2 -1.36358 -5.07937 -1.7356 -1.89235 -4.92047 2.38874
613 205 1 -6.49363 -6.83777 -0.0789199 7.01687 6.76001 -22.3676
614 205 2 -5.61762 -6.29027 -0.0630431 2.03611 0.00877 11.2996
550 184 1 -4.29202 -5.08422 0.318402 -3.61052 5.4208 -2.53534
552 184 2 -4.62511 -4.22845 -0.132593 2.18903 -4.45956 0.473354
339 113 2 -2.47527 -1.4535 -0.296061 -10.0546 -5.03342 -2.78051
350 117 2 -1.39078 -3.54376 -1.07612 3.11956 -4.74914 -12.0699
338 113 2 -3.86329 -2.30495 -0.907618 3.45956 12.1061 -4.40408
615 205 2 -6.92199 -6.52519 -0.956279 -6.57649 -4.15696 11.9965
337 113 1 -2.84594 -2.11274 -0.985427 11.6462 -4.75397 5.02415
523 175 1 -2.81309 -3.71712 3.0599 -2.87221 5.74878 -0.46682
409 137 1 -5.05842 -7.15308 2.62098 -4.27005 -1.49099 7.35861
410 137 2 -5.55364 -6.36282 2.19262 5.66044 -5.89938 -0.859548
43 15 1 -1.99318 -6.7666 -1.56187 10.3706 -13.4179 -5.61663
546 182 2 -6.52503 -2.28002 -1.29056 -6.6234 0.148935 -2.43321
437 146 2 -1.3126 -4.53252 2.7738 -12.3478 -14.4777 1.43376
438 146 2 -1.15123 -6.27823 2.55443 -9.52028 16.5143 2.29366
544 182 1 -5.55716 -1.94384 -1.21964 10.0049 -0.503257 11.2661
91 31 1 -4.62312 -0.590663 2.54204 -4.18862 -5.0984 1.47689
536 179 2 -7.20065 -3.99712 1.77759 -10.9248 -0.740599 -7.93044
436 146 1 -0.690912 -5.35478 2.69193 15.4998 -0.796533 -2.24498
252 84 2 -0.876557 -0.344997 -2.68714 0.494868 4.23809 0.43644
545 182 2 -5.51121 -0.925621 -1.16967 -4.96731 -2.48701 -1.78257
174 58 2 -3.45342 -6.64906 -3.03212 -12.3165 -1.86337 2.82999
372 124 2 -3.4334 -7.25468 2.46024 2.57057 0.987373 -8.42847
19 7 1 -5.84407 -4.46062 -3.02993 5.32794 -3.74933 -1.9677
21 7 2 -6.85645 -4.42032 -2.94543 -7.97571 0.779795 -0.595473
511 171 1 -6.2492 -2.85522 3.10239 3.03897 -5.55493 -7.23435
513 171 2 -5.44705 -2.33983 2.71763 -6.25252 5.49583 1.67647
92 31 2 -3.70987 -0.972042 2.83039 0.695139 9.98607 1.82403
509 170 2 2.2083 -4.94353 -2.21272 3.29149 -0.110808 8.49005
510 170 2 2.69411 -6.32047 -2.98247 -0.520166 4.06689 -6.16038
508 170 1 2.88208 -5.29714 -2.90291 6.58461 -3.90633 -0.0224374
118 40 1 5.9357 -4.91322 -2.87438 -22.7918 -33.8578 -18.9574
120 40 2 6.05509 -5.88078 -3.21436 16.579 7.80814 -0.489407
119 40 2 4.94251 -4.8421 -3.12818 2.09144 14.2927 7.25608
248 83 2 7.19474 -1.15393 2.73656 3.54736 1.7694 4.51144
157 53 1 6.58823 -3.13001 -1.16784 11.4265 6.4939 20.4795
158 53 2 6.75893 -3.57504 -0.24984 -5.12067 0.207893 -10.1941
159 53 2 6.29369 -3.84572 -1.8599 -1.53938 0.0265181 0.115855
537 179 2 6.59225 -5.32759 2.01738 -5.19612 -1.12822 -11.9258
535 179 1 6.71592 -4.5734 1.33292 21.6245 8.31633 19.7798
247 83 1 6.27372 -0.710325 2.75831 0.49141 -26.1481 -6.50284
487 163 1 1.49828 -4.72937 -0.622835 -4.50018 15.7245 -23.5602
488 163 2 0.545656 -4.63442 -1.04354 1.73172 -3.28696 6.48343
489 163 2 1.84809 -3.7515 -0.672721 5.19919 -2.62569 10.3908
373 125 1 2.57875 -2.22422 -0.388608 26.406 -2.05614 2.24862
374 125 2 2.51011 -1.74029 0.499468 -14.4054 5.00762 4.18898
375 125 2 3.58639 -2.44642 -0.288142 -9.55455 -3.66607 -6.98163
357 119 2 0.945986 -5.05596 2.16822 4.51509 -14.0686 10.2836
356 119 2 1.73991 -5.21531 0.794559 4.78263 -0.790922 -1.8187
431 144 2 5.28351 -3.52682 1.02766 -1.69587 4.27153 6.65058
432 144 2 5.39138 -2.14801 1.94475 -2.76391 6.14862 -7.15559
430 144 1 4.77506 -2.673 1.30795 6.61231 1.95704 -2.28741
355 119 1 1.83449 -5.45069 1.8043 -14.9394 -0.345971 -13.8404
151 51 1 0.554058 -1.18042 2.78082 20.1449 12.288 -2.52854
152 51 2 1.23134 -1.82614 3.19078 -5.09979 -9.61704 -1.00701
419 140 2 4.3881 -6.76406 -1.75389 4.16609 1.48751 -1.07039
194 65 2 2.24059 -0.700513 -1.59208 -3.04467 -0.730673 7.25317
195 65 2 1.39806 -0.0028998 -2.83088 7.76998 -2.74716 3.29889
153 51 2 1.17426 -0.510301 2.27379 -11.0186 -7.37222 5.61858
506 169 2 3.60789 -2.54114 2.96985 6.30904 -9.1039 -13.8188
507 169 2 3.39671 -4.24068 3.15086 5.3077 4.35307 -2.59605
145 49 1 4.17308 -5.58629 2.83965 23.8572 -5.7243 7.02459
146 49 2 3.39857 -5.56856 2.13234 2.42094 -8.88498 8.85956
147 49 2 4.97681 -6.19726 2.64968 -9.09193 -3.18704 -9.36188
277 93 1 -4.99863 1.59797 -2.73199 9.16475 3.7117 2.35371
279 93 2 -5.02445 1.38802 -1.72122 -1.4885 3.75863 -0.848832
278 93 2 -4.41928 0.842811 -3.1351 -11.0916 -5.68227 -5.74943
104 35 2 -1.5938 2.32468 1.30973 6.53974 2.1986 -6.76695
386 129 2 -5.63384 6.31963 -0.379075 -0.925819 5.25098 7.87138
411 137 2 -5.56132 6.62161 2.49777 -0.21294 -1.50576 -1.93617
103 35 1 -2.43003 1.75844 1.21943 -14.1601 -5.557 17.2005
105 35 2 -3.12401 2.05792 1.92711 5.63001 -1.1319 -1.64398
93 31 2 -4.55446 0.345264 2.13265 2.31469 -5.43886 1.65796
308 103 2 -7.09719 5.48363 -2.32447 4.97299 1.61924 -1.30214
385 129 1 -5.01712 5.55437 -0.0905521 12.8998 -14.562 0.694438
45 15 2 -2.08631 7.31731 -0.722805 -5.00378 4.78387 3.60557
44 15 2 -1.5672 7.20188 -2.19123 -1.47325 6.71652 -8.17952
387 129 2 -5.35362 5.1204 0.7819 -4.02581 3.9596 -1.62936
401 134 2 -1.64429 2.85863 -1.37704 -2.86256 -2.50188 -0.216714
402 134 2 -0.00366203 2.8628 -1.22734 -12.3356 10.6871 13.603
371 124 2 -2.44389 6.7905 1.20828 1.96555 -4.52956 7.60795
565 189 1 -0.456274 4.59966 2.36754 3.77335 1.00991 -0.694055
109 37 1 -2.15297 5.42441 0.127658 -4.11768 -8.43542 -0.973883
111 37 2 -3.17201 5.37217 0.229666 -7.69013 2.63747 -6.90793
370 124 1 -2.4613 7.25005 2.1269 2.84085 6.07434 5.03938
110 37 2 -1.84784 4.47604 -0.146357 7.1558 6.56531 -4.17715
567 189 2 -0.804782 4.64281 1.39368 4.36977 5.1908 14.4626
313 105 1 -4.69462 1.07223 -0.0611591 -14.7058 -27.598 -30.2236
314 105 2 -5.24019 1.80324 0.37396 8.3726 10.345 12.6111
359 120 2 -7.09754 4.70267 1.59941 -0.425195 -8.3117 -1.3585
358 120 1 -6.29382 4.81661 2.23464 1.2643 14.5605 -9.50681
360 120 2 -6.44323 4.20699 3.04102 -5.5372 -5.00287 2.5238
400 134 1 -0.9018 3.07952 -0.724666 17.2185 0.273481 -16.5605
315 105 2 -3.7035 0.915101 0.167508 -0.803767 20.5538 13.7489
466 156 1 4.78674 1.80196 -2.89501 12.4177 1.82139 -2.11126
87 29 2 1.80101 6.3126 -2.80345 -11.3955 -3.96971 -0.240881
134 45 2 4.78171 1.42957 -1.16193 0.00560517 4.75799 -2.02626
115 39 1 6.5693 7.2526 2.6675 -7.5633 8.02672 -12.6488
307 103 1 6.77625 5.03248 -2.77601 7.76093 -12.9252 0.633633
309 103 2 7.07794 4.11715 -3.15858 -8.07816 10.8261 2.032
566 189 2 0.194272 5.40083 2.50285 -7.03377 -7.81632 -9.52359
133 45 1 4.74279 1.6823 -0.161578 -5.68009 10.3582 11.5464
135 45 2 5.34517 1.14648 0.44514 6.32468 -10.2785 -1.58374
117 39 2 7.24424 6.99908 1.94414 2.25025 -0.00266967 1.7718
418 140 1 4.94091 7.04969 -1.61812 -7.00009 -5.81995 -0.527487
420 140 2 5.46761 6.73354 -2.4364 1.74231 -0.576248 0.743519
176 59 2 4.70248 4.56005 1.73258 3.63093 2.30732 -1.18735
262 88 1 6.46765 4.08177 0.214059 -4.36222 -8.18187 16.0716
263 88 2 6.50761 4.68248 -0.603412 -7.63156 -1.95502 -8.48674
264 88 2 5.72527 3.35851 0.13529 8.66855 7.6581 -8.22989
193 65 1 1.62008 0.0787225 -1.83165 -6.23254 1.92646 -14.3629
33 11 2 2.27866 3.40064 -1.85435 -0.952629 -8.94497 4.87942
32 11 2 1.56493 1.80307 -1.8819 13.0883 3.03458 2.29766
31 11 1 1.47032 2.80601 -2.12846 -12.0733 1.56067 -5.82569
175 59 1 4.39533 5.5237 1.85715 -1.66272 -0.0121499 1.48512
177 59 2 5.20402 6.12102 2.06194 0.187952 0.901801 1.31793
577 193 1 1.80148 6.18739 1.85092 9.81471 3.28757 -4.46172
257 86 2 2.88393 4.88486 -0.102559 3.67032 -0.280505 -6.81751
578 193 2 2.84687 6.17199 1.88329 -12.4643 -5.97112 2.46465
258 86 2 3.78766 5.49803 -1.37537 6.82892 0.876281 6.1724
346 116 1 2.83609 0.418071 2.23678 -12.2317 -9.06332 -14.7802
256 86 1 3.15555 4.75141 -1.08262 -7.72957 3.91329 2.88713
348 116 2 3.37034 0.617386 3.07613 8.40545 1.83919 8.27122
579 193 2 1.52812 7.11828 1.53143 -0.0942246 4.12718 5.55944
318 106 2 2.47705 4.10757 2.76212 2.86224 -6.72516 12.3952
347 116 2 3.26718 0.888375 1.44273 1.69344 2.75519 -0.364642
525 175 2 -3.41883 -4.21615 3.73533 -0.441626 1.72703 -4.20875
524 175 2 -2.7455 -2.723 3.31122 2.30347 -3.93142 5.51762
37 13 1 -2.33333 -1.08106 3.96395 24.0017 14.0798 0.34241
38 13 2 -2.36494 -0.148998 4.39482 -9.52524 -7.61109 -0.88302
39 13 2 -1.32571 -1.17895 3.74787 -7.17636 -8.32534 -5.99776
574 192 1 -4.85789 -4.86263 4.57041 4.13664 9.57151 0.25732
575 192 2 -4.98252 -5.8855 4.58289 -1.0601 9.68861 3.84648
576 192 2 -5.25647 -4.41252 5.43756 1.92415 -18.3377 -21.7374
534 178 2 -1.47401 -4.77423 8.19827 -2.47341 -0.0298542 8.13568
532 178 1 -1.36276 -4.83941 7.19902 26.4465 14.2923 -14.4754
533 178 2 -2.19286 -5.3061 6.81047 -6.27574 -3.33139 7.13886
520 174 1 -0.392789 -2.37661 6.11323 13.2515 -14.0515 -1.3071
521 174 2 -1.19547 -1.82132 5.86869 -11.2848 -0.132756 0.625285
522 174 2 -0.64475 -3.26551 6.58889 -5.21347 7.86767 -6.00665
512 171 2 -5.87081 -3.59568 3.70684 0.687832 -0.955742 0.84901
289 97 1 -0.962138 -0.713336 8.3939 -18.8784 12.4283 8.58118
165 55 2 -6.9977 -2.88582 6.20733 2.84244 -5.49742 6.36479
61 21 1 -4.37572 -0.598897 9.23024 2.58918 2.49411 -8.39397
333 111 2 -3.89748 -5.75655 8.35321 1.66071 6.09165 -2.26957
213 71 2 -4.31261 -3.30804 8.03757 7.49545 10.689 7.88189
331 111 1 -3.65105 -6.02378 7.39423 -21.7979 -15.1049 3.37885
332 111 2 -4.49627 -6.45066 6.9856 2.20933 5.13686 -1.7481
211 71 1 -4.06126 -2.53893 7.40366 -2.96139 -7.88048 -16.9229
212 71 2 -4.12503 -1.59005 7.80691 -3.13585 -12.0171 14.4233
163 55 1 -6.31664 -3.64624 6.35456 -5.02385 5.771 3.03679
164 55 2 -5.3981 -3.26866 6.6375 -2.30974 11.887 4.25989
222 74 2 -7.19682 -6.84868 6.27191 7.93852 2.94742 -8.22052
221 74 2 -6.4755 -5.37223 6.63307 -1.70182 2.44026 -3.75987
220 74 1 -6.29817 -6.36918 6.45057 5.66113 -2.71796 15.5109
53 18 2 -4.90614 -0.0442138 4.66785 3.34055 9.03742 14.4225
290 97 2 -1.95818 -0.971109 8.41378 10.6166 -5.59705 2.38114
291 97 2 -0.360665 -1.55369 8.47986 -1.29006 -0.113397 0.224229
185 62 2 3.86587 -5.93183 4.42533 -11.3401 5.16993 6.13122
13 5 1 0.688978 -2.85649 8.79722 11.2141 0.161177 -10.4762
14 5 2 1.0336 -3.79135 8.98786 -3.77599 -6.7439 8.7067
184 62 1 3.52558 -6.03671 5.40255 28.9541 -24.1751 -4.12016
276 92 2 1.26759 -3.6563 5.18448 12.0487 3.98732 3.29893
274 92 1 1.54903 -4.4636 5.74518 -25.3829 8.42468 -5.30931
364 122 1 4.58122 -4.34921 7.9134 -2.11876 -4.20477 9.35832
365 122 2 4.9213 -3.43168 7.63295 5.67249 4.4901 -5.41085
366 122 2 4.02597 -4.77722 7.16769 1.8047 -0.715617 -2.09697
186 62 2 2.59038 -5.60788 5.47976 1.18997 13.1327 1.05748
407 136 2 0.285167 -6.20591 9.69983 4.08455 11.3385 10.4411
416 139 2 6.32422 -1.50142 8.14605 -2.54648 -13.2788 -11.3963
415 139 1 5.91031 -1.76024 7.22647 -6.21843 11.3508 6.99739
168 56 2 5.4706 -5.04607 9.76857 3.96567 4.68391 -10.0489
505 169 1 3.02983 -3.29149 3.33811 -22.7893 24.0112 24.9703
275 92 2 0.684243 -4.99138 5.72022 -4.21305 -9.52133 8.15883
15 5 2 1.13684 -2.62137 7.90116 -7.68156 3.86905 4.23702
417 139 2 5.06033 -1.2006 7.08638 4.0019 -2.53495 0.0204413
266 89 2 5.568 -7.1398 5.13774 11.4099 -4.30388 0.680183
607 203 1 4.02987 -0.853384 4.76636 6.90111 -20.3995 -0.147678
608 203 2 4.88927 -1.07471 4.25437 -1.83017 12.7586 0.185364
609 203 2 3.56651 -1.75537 4.86019 -7.35289 2.27865 3.57117
560 187 2 7.24714 -3.43096 9.44573 0.723587 8.25616 8.55267
559 187 1 7.06824 -2.44013 9.62392 3.1512 -0.335047 -19.9768
429 143 2 -4.48204 1.88747 4.15615 5.81135 -0.277855 3.99663
428 143 2 -3.83886 3.35233 3.57392 -12.2863 -11.298 5.96735
427 143 1 -4.22214 2.41647 3.31562 10.2201 9.3219 -10.7094
62 21 2 -5.10006 0.0131988 8.8502 1.09703 -0.70981 7.8363
327 109 2 -3.03984 0.707529 6.30555 -1.37504 11.6979 0.64604
457 153 1 -6.18908 5.41711 7.46154 10.0175 -1.87256 -8.12552
459 153 2 -5.17287 5.52725 7.52411 -4.72528 -1.20355 6.78066
255 85 2 -6.21033 2.70919 7.15809 3.38809 10.9993 8.42314
253 85 1 -6.59204 1.78953 6.99614 2.57764 -15.6311 -9.63147
589 197 1 -3.83864 4.86078 4.55382 14.0156 6.93419 -5.68526
590 197 2 -2.8671 4.81136 4.92505 -13.2169 -2.07547 -0.494045
591 197 2 -3.92621 5.69968 3.96863 1.56931 -5.72821 6.78663
202 68 1 -2.2689 5.67516 8.02981 -6.90691 -2.85849 7.77786
203 68 2 -2.35188 6.65185 8.30686 0.546723 -2.07454 -4.18933
204 68 2 -1.31467 5.35188 8.19582 1.30378 1.10766 -2.93051
325 109 1 -2.25233 1.27487 6.66061 3.18033 -3.37672 -3.55151
326 109 2 -1.90619 0.910725 7.54116 2.63749 -7.20227 1.65344
458 153 2 -6.39284 5.56127 6.47368 -3.66949 1.97377 3.28246
384 128 2 -6.30091 3.23919 4.65035 -0.227277 -3.99959 -4.48465
52 18 1 -4.58202 0.604952 5.4131 -5.72488 -13.6108 -15.1822
382 128 1 -7.27829 3.25784 4.35548 6.81995 1.31012 15.9911
54 18 2 -5.32521 0.825348 6.09439 -3.55677 2.09242 -1.68596
453 151 2 -3.10631 2.28727 8.45439 -6.56732 -6.55544 -4.3129
451 151 1 -3.90432 2.89185 8.63417 15.8903 20.0978 3.6463
452 151 2 -3.45639 3.82244 8.58862 -9.57877 -4.31399 -2.18972
36 12 2 -1.19612 2.85005 5.51946 -1.55413 -11.3915 1.64667
34 12 1 -1.17063 3.77531 5.10794 -0.462123 21.0482 -2.73995
35 12 2 -0.990843 3.82178 4.10184 1.59345 -3.3979 -1.6195