ITEM: TIMESTEP
46500
ITEM: NUMBER OF ATOMS
648
ITEM: BOX BOUNDS pp pp pp
-7.2417763920935752e+00 7.2417763920935752e+00
-7.2417763920935752e+00 7.2417763920935752e+00
-1.6092836426874964e+01 1.6092836426874964e+01
ITEM: ATOMS id mol type x y z fx fy fz
559 187 1 -1.23309 -5.57813 -15.2937 1.07949 -19.1156 15.0593
414 138 2 -4.20708 -7.02775 -12.8497 -0.897114 -10.3805 3.86063
412 138 1 -4.62609 -6.13811 -12.623 6.87592 14.4086 -10.0604
413 138 2 -4.27746 -5.49288 -13.3456 -6.58205 2.75807 2.64802
309 103 2 -0.938231 -6.36763 -13.2352 -2.05137 -9.5128 9.75987
29 10 2 -4.88641 -0.887761 -14.9884 8.90801 -3.67893 -5.72295
28 10 1 -4.88902 -1.79881 -15.4677 21.3348 23.1761 5.22452
637 213 1 -3.88235 -4.29613 -14.8251 6.58632 19.9691 10.0992
639 213 2 -4.3165 -4.43402 -15.7195 -4.34636 -13.1955 -11.0027
638 213 2 -3.93093 -3.25994 -14.7458 0.985182 -15.9839 4.55432
307 103 1 -1.11555 -7.23516 -12.6902 15.3375 29.5584 -12.4013
393 131 2 -1.42259 -1.37198 -12.2844 10.135 20.6268 -33.6603
561 187 2 -2.10666 -5.16239 -14.9623 -1.73594 5.91743 -9.95888
30 10 2 -5.86321 -2.05835 -15.3631 -18.1297 -13.3179 3.99112
285 95 2 -6.54501 -5.09926 -12.0136 21.3039 -6.9911 -2.90163
274 92 1 -3.45672 -4.27784 -10.3005 14.2766 20.8862 26.3641
275 92 2 -3.77254 -3.46177 -10.811 -3.41298 -2.22841 -7.97969
276 92 2 -3.61787 -5.17837 -10.6986 -13.4058 -19.4476 -19.2583
145 49 1 -0.0942756 -4.08859 -11.5097 33.1938 -3.73083 -12.3745
384 128 2 -6.93909 -2.21658 -10.3748 2.03683 -1.60286 7.57982
597 199 2 -6.58992 -0.952354 -11.8294 -2.44714 -9.52927 5.6292
446 149 2 -0.17477 -0.708581 -14.0811 -13.7596 -9.1791 9.74567
445 149 1 -0.949297 -0.0978277 -13.7442 30.9009 -1.10209 -16.0948
266 89 2 -2.54365 -6.94044 -9.7959 -9.91404 5.6398 6.74767
265 89 1 -3.55265 -7.1998 -9.69782 15.0129 9.12649 5.87708
595 199 1 -6.62233 -0.0892872 -12.3735 -15.1868 10.6101 -36.6534
391 131 1 -1.81065 -1.72594 -11.4457 2.60729 -53.6636 38.0211
392 131 2 -1.55132 -2.75152 -11.379 -8.99648 34.3072 -3.48495
476 159 2 -1.00316 -5.45991 -10.2285 0.897788 -16.3835 11.1046
475 159 1 -1.11882 -6.49337 -10.1007 9.10755 29.279 -33.6234
477 159 2 -1.19924 -6.73344 -11.1247 3.2644 -10.5508 16.1838
366 122 2 -0.472502 -1.69124 -9.88911 24.3075 -5.54105 19.9243
284 95 2 6.39966 -5.6255 -12.2891 9.31311 10.7445 7.51931
283 95 1 7.01462 -5.0968 -11.6147 -28.5848 1.87979 -4.2946
356 119 2 0.618935 -1.89464 -15.6684 1.8887 1.83075 8.22129
383 128 2 6.9414 -3.40517 -11.4135 3.90506 20.869 -0.295807
146 49 2 0.584056 -3.35431 -11.2576 -16.0504 -4.92665 4.07873
583 195 1 3.9219 -1.85093 -15.0401 -5.36468 5.74953 -23.6453
130 44 1 7.07345 -4.86711 -15.3361 -4.01562 2.26443 -6.19823
369 123 2 1.2988 -6.0586 -14.1216 -4.08998 -13.2962 -5.61503
368 123 2 1.8406 -4.59395 -14.4049 -4.06553 0.375088 4.40205
367 123 1 1.36991 -5.1581 -13.6742 10.8706 12.6466 7.65109
585 195 2 4.21071 -1.24268 -15.8091 -2.91753 -5.48732 -4.90499
115 39 1 7.09429 -2.27391 -14.7398 -28.2123 34.7776 -2.6933
117 39 2 6.53409 -1.49045 -14.3158 15.5296 -27.7008 8.28555
116 39 2 6.77921 -2.05218 -15.7058 4.49788 -3.82167 -6.51585
584 195 2 4.43681 -1.41507 -14.2751 2.21443 -1.46644 16.2853
81 27 2 4.47311 -4.84127 -9.90914 -20.9255 5.00065 -12.1778
80 27 2 6.04749 -5.10618 -9.95632 7.09247 -4.13652 0.146039
132 44 2 6.5573 -5.2988 -14.5661 2.59922 -4.36558 3.56583
382 128 1 7.08737 -2.36961 -11.2919 0.96632 -26.6065 -0.186487
131 44 2 7.15184 -3.85615 -15.1187 -1.44037 -2.15112 5.54897
357 119 2 2.12929 -1.6487 -15.0078 -20.5069 -1.70321 15.5097
516 172 2 2.6534 -6.59927 -11.4464 -4.76591 -13.9774 -0.261023
514 172 1 3.36022 -5.90438 -11.6562 5.35263 -1.43457 9.48943
515 172 2 2.84874 -5.23146 -12.2022 -3.41467 12.7389 -14.6344
170 57 2 4.72308 -6.50392 -12.6016 8.56739 -6.02496 -15.2342
169 57 1 5.54278 -6.48391 -13.2567 -3.15973 57.9983 6.56343
355 119 1 1.10538 -1.65397 -14.7837 15.833 2.54094 -20.7505
37 13 1 5.43414 -0.303558 -13.4482 -11.3934 -9.44724 15.7561
371 124 2 6.29163 -7.09212 -11.2661 1.04221 -5.50555 0.813771
596 199 2 7.02403 -0.223515 -13.014 19.9295 9.79484 26.4761
147 49 2 0.459275 -4.63014 -12.2207 -20.2313 9.30737 5.82258
306 102 2 5.75485 -1.26486 -10.9773 -1.56685 -9.89227 -5.2683
304 102 1 4.74709 -1.07857 -11.0846 -12.5255 3.3075 28.7337
305 102 2 4.26072 -1.55928 -10.294 2.3203 2.64403 -15.262
39 13 2 5.03098 -0.482911 -12.475 10.5294 -3.94799 -20.308
523 175 1 2.78048 -4.27423 -15.9246 4.5721 42.7648 -10.2177
524 175 2 3.29448 -3.36795 -15.7712 -8.76344 -23.8306 17.7818
174 58 2 5.44518 -5.57047 -16.0674 -7.21721 0.946093 -3.68787
308 103 2 -1.3509 6.60178 -13.4425 -10.3474 -14.4013 3.87847
269 90 2 -2.94997 5.38498 -15.3662 13.1739 13.8893 -13.577
331 111 1 -4.85665 0.910834 -14.2168 17.4357 -8.07345 6.05212
333 111 2 -3.98197 1.11824 -13.6999 -11.3517 -2.76615 -8.08011
332 111 2 -5.45457 0.335455 -13.6081 -5.24958 4.24384 12.7142
447 149 2 -0.512651 0.763294 -14.1317 -15.8431 4.14696 7.11662
13 5 1 -0.615299 3.39791 -12.4007 2.08544 -19.8478 -12.3731
520 174 1 -7.07588 5.42877 -14.9617 8.62121 -6.9392 -11.3712
519 173 2 -6.23726 3.46793 -12.1604 8.18456 4.77675 -25.2087
557 186 2 -1.78951 2.19817 -11.9029 15.6712 4.81979 -13.4824
14 5 2 -0.815473 4.03454 -11.663 -2.0718 17.5819 16.384
517 173 1 -5.91854 3.38916 -13.1607 -13.1883 1.35765 21.0894
518 173 2 -5.58346 2.44254 -13.35 0.782628 0.926955 -3.54372
385 129 1 -2.75595 5.1514 -13.5017 -24.9712 11.8563 10.6546
387 129 2 -2.37896 4.23532 -13.536 20.5098 -25.2846 -6.96456
386 129 2 -3.32153 5.09221 -12.6357 0.600435 10.0925 -3.47349
522 174 2 -6.5451 4.77742 -14.3819 9.28701 -3.27513 6.93053
508 170 1 -6.67139 4.3354 -10.6698 8.7637 3.01542 -3.33067
558 186 2 -2.26541 0.918485 -10.8732 -5.82611 17.8302 -19.0079
556 186 1 -2.53568 1.81075 -11.3411 -11.9749 -25.8578 31.9943
360 120 2 -2.24964 2.91398 -9.95259 -5.98019 -12.0816 -0.315452
286 96 1 -3.99287 5.03545 -10.9853 0.687458 -18.5348 14.2377
288 96 2 -3.60945 4.49745 -10.1862 2.56582 6.18804 -12.2935
267 89 2 -3.5653 6.42237 -10.2448 -14.1809 -11.8191 -7.60635
287 96 2 -4.99427 4.77561 -10.9925 -0.637972 3.39219 -4.3953
264 88 2 -5.94794 1.05236 -15.6005 7.52153 4.99721 6.43805
510 170 2 -7.2248 5.17395 -10.8864 -4.55785 -1.79851 -3.97601
509 170 2 -7.1458 3.78348 -9.95681 -1.42282 -1.94813 5.98908
123 41 2 -5.3644 7.23369 -9.80305 12.2466 -6.58139 9.03803
377 126 2 -0.00751796 2.80159 -15.4503 18.689 -7.37956 11.8841
15 5 2 0.290638 2.951 -12.2294 1.21206 6.47204 -2.17174
481 161 1 2.19692 3.62415 -11.6473 -9.60782 17.9315 2.97749
483 161 2 2.36576 3.20431 -10.7373 0.73229 -10.4662 -0.186509
521 174 2 6.46961 5.37185 -14.5901 -16.8118 2.36848 10.8384
378 126 2 1.26954 1.82929 -14.616 -14.6532 17.2095 -11.0356
482 161 2 2.52299 3.07846 -12.4506 5.10677 -11.0367 -1.58387
480 160 2 0.51423 6.48781 -11.8333 -8.52446 1.76808 -6.22308
633 211 2 2.5406 5.85067 -15.4803 -9.36637 16.2204 -8.73199
478 160 1 1.49556 6.30182 -11.6509 6.84086 30.4659 15.4408
38 13 2 5.06505 0.616287 -13.7189 7.41055 7.29851 -6.04526
479 160 2 1.74009 5.37963 -11.9743 5.23265 -25.0409 -3.52174
222 74 2 3.87829 2.24981 -13.8211 10.3699 -5.07505 -6.84502
221 74 2 2.75083 3.24435 -14.3671 -4.15545 22.3633 -14.0981
220 74 1 2.86637 2.35213 -13.9204 -9.90076 -11.9396 13.4943
362 121 2 6.4987 1.90094 -11.735 -16.5177 5.57897 2.84146
361 121 1 5.59112 2.38471 -11.6311 8.62335 -9.32619 14.8688
363 121 2 5.20514 2.27242 -10.6756 6.82412 -1.61783 -13.3361
370 124 1 5.89884 6.50554 -10.9302 3.81768 -1.1368 15.5765
631 211 1 3.02418 5.05974 -15.0923 -5.52326 -22.4676 29.12
541 181 1 5.09353 5.39841 -13.2903 6.59325 -16.5629 6.1391
644 215 2 6.05061 1.83437 -15.3632 3.05104 7.49013 2.56598
632 211 2 3.47725 4.54795 -15.8711 6.77705 10.3829 -9.58141
543 181 2 4.75823 5.4004 -12.3128 12.9925 3.10831 -9.51809
643 215 1 5.49577 2.16618 -14.561 4.19042 6.47599 3.5735
645 215 2 5.98153 2.89554 -14.013 -2.93759 -10.0134 -7.96002
171 57 2 5.80085 7.10978 -13.639 -7.72253 -31.8446 0.57521
9 3 2 2.79977 6.54359 -10.1433 -8.3485 1.09422 -25.7195
372 124 2 6.12785 6.42669 -9.93698 -4.73197 0.206844 -0.0315744
542 181 2 4.33135 5.09388 -13.8796 -18.7477 -0.5255 -15.3055
438 146 2 1.71945 0.556565 -10.1864 1.26775 -4.50151 -6.51156
376 126 1 0.291266 1.91869 -14.9871 -1.75795 -6.7426 -6.54681
431 144 2 -1.89442 -4.4857 -7.83703 -15.3699 -13.2107 9.51969
616 206 1 -6.42679 -2.02692 -8.87409 -7.38266 8.38104 -9.38166
430 144 1 -2.75228 -4.99972 -7.52912 20.0228 11.6172 -8.25149
432 144 2 -3.14548 -5.52201 -8.31607 6.26725 -5.14919 -3.46786
45 15 2 -5.84907 -4.85769 -8.60207 -2.68743 -11.6785 -3.69082
380 127 2 -4.66952 -3.71059 -6.434 0.216957 1.77096 7.22349
379 127 1 -4.09996 -3.43909 -5.61252 19.919 -7.15383 -2.69714
282 94 2 -0.102255 -3.18619 -6.47705 -2.40689 0.169339 -7.34304
381 127 2 -3.13212 -3.79437 -5.7835 -22.5659 8.12287 2.29162
277 93 1 -3.83435 -1.37151 -3.84335 2.02399 -0.824478 -21.0951
279 93 2 -3.91121 -2.15435 -4.55514 -3.3774 10.367 27.1797
53 18 2 -0.795117 -5.80935 -5.36806 -6.11745 -1.51264 11.9179
52 18 1 -1.59748 -5.62116 -4.73366 -5.69148 0.225785 -7.27469
54 18 2 -2.46806 -5.77468 -5.25313 9.97606 1.43416 2.09983
121 41 1 -6.3296 -6.98265 -9.62589 8.43509 45.0699 -33.1477
44 15 2 -4.34342 -4.51022 -7.91267 -41.4837 -3.66207 7.67914
43 15 1 -5.40222 -4.51476 -7.75757 38.9537 15.209 -6.03858
617 206 2 -6.22243 -2.91576 -8.42671 5.70304 -4.3644 13.47
618 206 2 -6.58639 -1.26683 -8.20571 4.77802 -1.67688 3.04938
225 75 2 -0.241952 -0.840972 -5.91581 -6.93665 0.529158 -4.18838
223 75 1 -0.168147 -1.84503 -5.7348 -6.17191 21.8458 -8.63803
470 157 2 -5.14505 -5.41816 -3.70272 2.70214 0.173335 8.43617
469 157 1 -6.01862 -5.57426 -4.18662 5.05262 10.4989 -32.2055
471 157 2 -5.85805 -5.17382 -5.1348 -5.24033 -5.98546 18.1127
79 27 1 5.23921 -5.10961 -9.33055 14.1654 -5.70779 1.49927
280 94 1 0.080753 -3.95867 -7.15768 -11.5354 2.75731 -6.26561
281 94 2 0.744365 -4.56716 -6.70892 5.98173 -11.1375 4.50977
18 6 2 6.98486 -4.79482 -3.61946 -0.511543 3.55713 -0.0373825
60 20 2 7.12543 -6.16105 -5.58166 8.52327 -1.83464 3.75855
293 98 2 5.99058 -1.24882 -3.379 3.71627 2.73509 -21.6925
67 23 1 3.31039 -2.49016 -9.10942 -9.28414 14.0599 27.1342
68 23 2 3.29389 -2.05163 -8.14672 14.256 -10.3482 -23.6033
69 23 2 2.32757 -2.7165 -9.24437 -6.36527 0.962744 -9.77999
602 201 2 5.64696 -3.37776 -8.1566 -2.68221 -4.18301 0.0175193
603 201 2 5.65309 -4.2817 -6.81544 8.11479 -18.5141 11.0779
544 182 1 2.71876 -5.33889 -7.25307 -1.7611 -9.58043 33.7856
545 182 2 3.18585 -4.68218 -7.81901 23.109 23.0965 -24.0891
601 201 1 5.45564 -3.34762 -7.15454 7.08174 12.0787 -6.63395
546 182 2 2.09206 -5.89876 -7.82073 -14.1308 -13.0457 -12.8547
504 168 2 2.3105 -4.56827 -5.79021 0.0329125 -1.16761 5.31491
625 209 1 3.69457 -1.61378 -6.60253 -8.87842 -4.04984 0.318052
626 209 2 4.55684 -2.21407 -6.75902 -11.1407 6.59541 3.19723
58 20 1 6.27221 -5.81673 -5.99778 -30.7861 -8.74957 13.6317
502 168 1 1.87166 -4.44371 -4.85967 7.77584 9.64767 7.58329
503 168 2 1.87429 -3.46906 -4.50846 0.63062 -5.75997 -5.67457
548 183 2 2.61269 -5.66018 -3.96139 1.24793 -5.05965 4.17999
619 207 1 0.874304 -6.99894 -8.36133 -15.6069 -3.84242 -15.2583
620 207 2 0.0805752 -6.88134 -9.03408 8.98966 11.4136 5.4156
344 115 2 3.70461 -7.05164 -6.55619 -9.81546 9.96817 -6.91043
224 75 2 0.456658 -1.86619 -4.93909 12.9702 -6.92531 18.3186
491 164 2 6.95952 -0.168479 -5.83924 3.93987 0.250767 -8.74901
490 164 1 6.70094 -0.179333 -4.85149 -0.111329 -8.49732 13.7433
533 178 2 2.04476 -0.887628 -3.55208 1.24716 30.4958 -3.926
532 178 1 1.86279 -1.80461 -3.91718 -0.740093 -14.0832 5.84462
59 20 2 5.46233 -6.3872 -5.61807 24.3718 14.283 -23.0882
8 3 2 4.11502 -7.22335 -9.3072 -1.52931 15.0357 -13.712
627 209 2 3.10678 -2.12316 -5.938 4.50636 6.64834 2.98638
364 122 1 0.399298 -1.8471 -9.31628 -19.9945 9.79413 -16.8689
365 122 2 0.205197 -1.8677 -8.30936 -4.392 -5.60354 -7.15561
341 114 2 1.47579 -6.92328 -5.19198 -1.16829 3.56188 -10.8721
342 114 2 0.628492 -6.92102 -6.73119 11.5865 -0.887232 1.02774
340 114 1 0.587604 -6.84445 -5.6999 -11.1075 -11.9849 11.0404
547 183 1 2.92196 -6.54309 -3.50123 18.9766 -1.63519 -1.80223
549 183 2 3.96469 -6.62989 -3.54964 -24.854 2.75497 2.90488
197 66 2 -5.78514 0.972209 -6.51142 -7.86135 -2.00163 -15.3654
196 66 1 -6.56333 0.683366 -7.14774 8.32153 -16.7934 12.4178
358 120 1 -2.1355 3.52931 -9.14227 6.62971 17.736 -1.83557
198 66 2 -6.98884 1.44197 -7.66969 3.35544 16.385 -0.85624
83 28 2 -5.07394 1.19199 -4.54314 17.0956 -6.28943 -18.7127
575 192 2 -2.67756 5.97888 -3.55473 28.9409 2.85092 -2.00343
574 192 1 -3.67878 6.03727 -3.46771 -35.6849 20.9116 11.5895
82 28 1 -4.43083 0.886942 -5.31605 -13.5841 -1.9542 24.0917
84 28 2 -3.98754 0.00851559 -4.97056 -6.46031 7.92127 -1.08164
122 41 2 -6.90709 6.98503 -9.04484 -14.3178 -31.8239 37.8087
492 164 2 -6.94669 0.0990831 -4.30476 -8.34426 1.39819 1.3647
194 65 2 -3.09258 2.10691 -6.23312 -12.4899 18.8433 1.08983
195 65 2 -2.09595 3.45563 -6.12845 -35.2914 -9.4097 -5.20691
193 65 1 -3.05861 3.12968 -6.43605 44.4367 -10.147 5.52441
634 212 1 -0.376098 5.15629 -7.87521 -4.62226 12.5482 0.720436
636 212 2 -0.603905 6.16216 -8.05929 2.67311 -31.9863 4.93389
635 212 2 -1.03658 4.49064 -8.31348 -2.35927 9.17641 -9.324
359 120 2 -2.41586 3.13661 -8.24149 -10.4182 -7.2259 1.1975
317 106 2 -4.79713 3.96539 -6.38161 11.8174 -5.111 -8.34641
318 106 2 -6.08302 4.73035 -7.24908 13.128 -9.18342 11.0253
316 106 1 -5.65078 4.51896 -6.34027 -17.431 19.0532 -18.9727
611 204 2 -0.148104 3.98913 -6.51657 -1.56989 13.5518 1.26963
610 204 1 -0.465395 3.75465 -5.56229 -5.66601 9.06483 5.53486
586 196 1 -5.54684 3.83236 -3.90067 -6.08338 -29.6574 48.1968
587 196 2 -5.67512 4.33353 -4.77781 2.01574 8.28579 -19.4855
300 100 2 -0.450135 6.53349 -4.20981 0.89861 7.85385 2.39987
298 100 1 -1.01547 5.92825 -3.61201 9.31865 -20.2614 7.40279
612 204 2 -0.756031 4.62232 -5.06746 3.05877 -10.8214 -4.87325
588 196 2 -4.57175 3.79714 -3.6207 -0.739069 12.8113 -9.01423
57 19 2 6.06405 2.71716 -8.46224 -20.3576 -8.03179 -1.01377
7 3 1 3.3331 6.61031 -9.29929 11.3411 -15.6191 32.5231
621 207 2 1.2906 6.57966 -8.62604 5.93858 6.66776 5.64657
230 77 2 2.40249 5.74964 -3.81207 -13.4126 12.3193 14.2237
437 146 2 1.07354 1.00781 -8.72151 14.3056 18.3498 -31.6407
180 60 2 0.108847 2.18053 -6.11913 -0.066626 23.9015 13.5869
178 60 1 0.345851 1.22464 -6.29542 10.8535 -49.7063 -10.7511
436 146 1 1.5004 1.36332 -9.619 -13.761 -12.3466 39.2969
56 19 2 6.6364 4.21865 -7.90135 -12.3392 -0.0214693 -0.879681
55 19 1 6.8631 3.24197 -8.10907 28.4021 10.1969 -0.209666
351 117 2 6.22673 2.59219 -5.53758 -9.89198 2.68693 -7.97117
349 117 1 5.37799 2.06318 -5.30012 26.5611 -9.0288 18.3487
350 117 2 5.83403 1.22583 -4.84318 -19.1156 6.77532 -15.6594
179 60 2 1.35985 0.984595 -6.12043 -16.6911 22.4211 -2.00285
474 158 2 5.05721 3.47607 -4.45029 10.9336 -1.59637 -8.98444
348 116 2 5.41085 6.28806 -7.24226 1.79452 1.33282 5.2961
347 116 2 4.72492 5.92871 -8.69407 26.0685 -7.0371 18.7027
555 185 2 4.66187 0.76727 -8.80057 3.57767 28.2899 -0.0110421
346 116 1 5.64114 5.87757 -8.15609 -20.8607 -1.58452 -22.1547
553 185 1 4.79333 1.805 -8.83485 -28.6773 -15.9579 -0.72069
554 185 2 3.91473 2.27182 -8.51731 18.9483 -14.1645 -5.5027
343 115 1 4.30774 6.89859 -5.94295 -4.15341 -23.4599 17.0156
345 115 2 3.76229 6.15984 -5.44782 5.18307 9.63407 -8.82413
500 167 2 2.9558 0.0521456 -6.42279 21.2166 -31.4926 -4.09717
501 167 2 3.87228 1.39021 -5.82859 -6.98046 -10.5549 -4.43092
499 167 1 2.94645 1.00345 -6.11757 -2.56783 39.2448 10.3843
229 77 1 2.44608 5.11684 -4.58943 3.96906 -10.3247 -26.9126
606 202 2 5.67185 6.04636 -3.49266 3.28121 13.4294 9.94367
472 158 1 5.14563 4.32296 -3.87422 2.34236 -10.4932 5.75251
473 158 2 4.1964 4.42919 -3.56642 -16.0662 11.3322 2.09992
231 77 2 1.58949 4.56702 -4.79828 14.3022 8.66673 12.0909
468 156 2 0.23265 2.97463 -3.50868 -19.2345 -4.33785 -11.9767
466 156 1 1.18818 3.01778 -3.22133 16.064 5.13783 17.7761
278 93 2 -4.06283 -1.59584 -2.8419 5.95145 -11.6484 -15.4645
233 78 2 -2.03341 -0.58962 -1.17231 14.1984 -6.02849 -6.58996
311 104 2 -0.73034 -5.81714 -3.00122 -32.4593 -0.152078 -25.3996
234 78 2 -1.84239 -1.43041 -2.5822 26.1137 21.5148 28.9938
32 11 2 -2.64463 -4.51671 0.687644 22.9859 -5.0331 -5.25031
31 11 1 -3.62345 -4.28561 0.649576 -37.8036 3.14619 27.8699
456 152 2 -4.81482 -1.20129 -1.04853 0.0359269 -9.90949 -5.60722
454 152 1 -4.10154 -1.90833 -1.3135 -5.22683 2.62947 42.6554
455 152 2 -3.86481 -2.31003 -0.374279 1.1085 -0.00916225 -29.8561
529 177 1 -6.49208 -0.793673 -0.690713 3.50078 3.75867 -13.2765
614 205 2 -2.019 -1.27144 1.43947 13.778 -25.2545 13.2836
328 110 1 -6.57958 -5.14428 -0.629278 24.6879 13.3594 -1.44168
329 110 2 -7.20042 -4.68012 0.0575713 -2.77469 -4.69089 -3.6229
330 110 2 -5.65972 -4.65311 -0.68656 -20.4891 -8.74474 5.21286
623 208 2 -5.72035 -6.71466 -0.592176 2.84335 -15.3765 2.28056
615 205 2 -0.743893 -2.33145 1.17607 4.93157 2.80362 -3.96961
613 205 1 -1.41118 -2.01816 1.89632 -30.3835 27.9896 11.8899
531 177 2 -6.93913 -1.36781 -1.40438 -6.38366 -4.60664 -2.19628
33 11 2 -4.02946 -4.53952 1.5736 10.1337 6.09932 -24.8292
530 177 2 -7.20167 -0.605413 0.0233364 -3.08237 7.77724 10.0506
310 104 1 -0.398568 -5.83072 -2.05929 28.6793 4.53326 0.399623
182 61 2 -0.0468284 -1.65433 -0.721996 -11.6982 -0.777224 -12.6386
539 180 2 -0.792157 -5.51673 -0.62652 -8.17785 -6.77405 -0.847012
538 180 1 -1.07351 -5.37518 0.371636 4.47246 5.74027 12.0351
540 180 2 -1.6532 -6.16197 0.721328 -1.09141 0.250335 -5.49501
183 61 2 -0.284363 -3.31378 -0.225689 10.74 26.776 -2.41504
232 78 1 -1.29679 -0.929763 -1.81901 -41.1046 -13.608 -21.8323
19 7 1 -2.86267 -0.106758 0.723831 -10.4888 35.4563 -15.4189
294 98 2 5.63854 -2.76878 -2.70961 6.36418 -23.4734 -11.6676
16 6 1 6.31553 -4.47892 -2.90313 0.852912 -7.30574 -2.2638
292 98 1 5.75327 -1.77628 -2.55249 -2.44598 24.2129 30.7756
534 178 2 2.19106 -2.27877 -3.06412 4.83457 -16.8502 -2.13717
17 6 2 6.74164 -4.77961 -2.02201 -0.0824976 1.21991 6.75487
297 99 2 4.89102 -4.80467 0.735977 -17.9625 -16.2674 -5.61157
296 99 2 5.40135 -3.26228 1.05227 -0.516343 -5.96426 -2.23864
295 99 1 5.69792 -4.20812 0.813987 20.8866 20.9964 6.80162
134 45 2 3.02217 -3.04036 -0.954416 5.17723 2.45634 -3.17876
133 45 1 3.33973 -2.92485 -1.9308 3.69594 20.0284 5.22686
605 202 2 6.11139 -6.78488 -3.17574 7.18519 -1.98514 -0.28651
99 33 2 3.35075 -6.86384 -0.489235 5.33448 6.30521 18.9472
135 45 2 4.04752 -2.14733 -1.97747 -11.8576 -23.9223 -0.572923
97 33 1 3.62234 -5.91475 -0.164694 -10.4712 -19.3317 -8.95806
420 140 2 3.26036 -1.57302 0.746206 -2.66013 7.75932 -0.7229
485 162 2 0.366575 -6.37342 0.856507 -6.96051 -0.717774 3.38428
181 61 1 0.175433 -2.38619 -0.0409232 10.8158 -41.3038 1.67228
312 104 2 0.581011 -5.70174 -2.2939 6.60715 -1.55767 12.3503
484 162 1 0.98814 -7.00888 1.36884 -16.0115 -8.3378 -1.01316
418 140 1 2.82432 -2.48819 0.7466 -5.67452 -1.73525 -5.67679
419 140 2 1.79345 -2.36536 0.633442 7.13618 -0.300953 -2.34782
486 162 2 1.86982 -6.54348 1.38067 22.979 9.23171 0.920896
428 143 2 2.97253 -3.45977 2.03028 -5.31383 -2.21161 5.52335
427 143 1 2.81785 -3.81208 2.99772 2.21705 -1.87848 8.33664
417 139 2 6.16024 -0.431467 2.05712 -0.204385 -8.17927 19.2245
98 33 2 3.78076 -5.46166 -1.05131 5.01652 15.8511 -5.43257
591 197 2 0.0810382 -2.1147 3.11671 -18.5163 -7.66585 -13.0896
507 169 2 -6.2011 0.509146 -2.26478 0.181169 -15.061 12.814
505 169 1 -6.27468 1.09295 -3.08261 8.39925 9.63665 0.776984
119 40 2 -3.34559 6.95964 0.281091 -8.28642 -1.43438 4.45661
622 208 1 -5.26883 6.83931 -0.44372 0.0038897 10.254 -2.85142
120 40 2 -3.22447 6.62139 1.95312 0.686384 -1.47819 -14.5901
624 208 2 -5.71771 6.3854 0.363476 -4.49235 4.91545 2.3429
118 40 1 -2.78325 7.09308 1.12776 13.6272 2.83636 4.14446
576 192 2 -3.97897 6.98819 -3.17846 8.15847 -26.541 -6.08194
506 169 2 -6.10036 2.04328 -2.75028 -1.75781 8.42284 -9.37637
536 179 2 -5.93071 1.77597 0.273463 -26.7987 3.01475 -5.45521
86 29 2 -4.93683 6.25542 2.81948 0.458287 -14.0973 -0.959374
535 179 1 -4.94751 1.78708 0.432281 37.9824 -11.7207 -4.06934
567 189 2 -4.70444 2.51528 1.78467 -4.29946 6.5057 24.6638
152 51 2 -4.39353 4.92134 -0.881627 -11.6397 16.6378 3.86484
565 189 1 -4.7279 3.01491 2.71795 4.88334 4.20933 -19.5064
151 51 1 -3.67491 4.25503 -0.635007 10.1955 -20.887 -15.343
153 51 2 -3.40267 3.84068 -1.5268 2.37205 4.12014 4.87573
577 193 1 -6.74009 3.78197 -0.830581 -0.00548303 4.9225 14.3601
579 193 2 -6.7025 4.49922 -0.0952121 1.93766 -8.72887 -1.69655
578 193 2 -7.17513 4.21601 -1.62837 -0.780203 3.62956 -13.1915
537 179 2 -4.47762 2.45402 -0.185785 -5.94433 9.02818 2.53635
253 85 1 -6.87392 6.07947 1.67386 -22.6213 5.92272 12.3363
648 216 2 -1.20628 1.84236 2.47892 1.09207 17.4318 -23.3423
299 100 2 -0.511016 5.66668 -2.72435 -2.47964 13.9195 -18.2623
20 7 2 -2.08005 0.514903 0.991461 -3.77236 0.704968 0.0726398
21 7 2 -3.63443 0.568623 0.453776 16.3159 -25.9418 15.3506
87 29 2 -4.40873 4.61774 2.78204 0.778671 5.05568 -0.187105
646 216 1 -1.04635 1.98694 1.43903 -0.562136 -39.7527 13.7233
85 29 1 -4.12033 5.62227 2.84672 -9.11109 12.6117 7.82993
647 216 2 -1.0349 2.97199 1.21268 -0.0664545 20.586 -1.49879
401 134 2 -1.48409 5.50886 0.989759 0.502342 5.85309 4.88674
400 134 1 -1.25553 4.64789 0.499168 15.8583 1.44009 -0.0136529
402 134 2 -2.14709 4.375 0.0882313 -14.8535 -4.27015 -5.68632
254 85 2 -7.19054 7.0119 2.01129 11.6914 -19.2259 -5.12608
498 166 2 -0.32056 6.59861 2.67261 9.39736 -4.23927 21.0271
256 86 1 2.64906 0.798631 -2.55799 -2.79997 30.823 -22.9539
258 86 2 3.43749 1.4499 -2.51647 7.96071 -17.852 13.8656
257 86 2 2.09524 1.44497 -3.16677 -8.12412 -17.901 14.5195
604 202 1 5.56524 6.89099 -2.88513 -13.6756 -11.9142 -8.53706
5 2 2 1.83207 0.410777 -0.832958 0.495774 2.46793 -23.2739
4 2 1 1.62374 0.303259 0.147637 -28.8118 10.631 29.7918
6 2 2 0.651147 0.625798 0.388083 29.7905 -8.72154 -9.32832
255 85 2 6.94812 5.36124 2.08054 17.7809 9.27907 -13.0092
337 113 1 5.20658 2.29729 -1.54584 -52.2013 9.86387 11.6354
339 113 2 5.37517 2.80691 -2.38309 8.75997 16.4958 -22.4149
338 113 2 5.97942 1.74803 -1.32155 40.1885 -25.4101 9.6294
88 30 1 5.84478 4.14451 2.24251 -13.966 12.7476 9.8337
89 30 2 5.56759 3.44606 1.57873 0.803686 -12.8815 -10.2785
416 139 2 5.33678 0.723941 1.24618 24.0244 -16.3861 -7.72664
415 139 1 6.22911 0.144396 1.23184 -20.1419 19.5671 -13.3721
138 46 2 4.35049 1.82425 -0.0238806 -4.40534 1.25937 -10.972
136 46 1 3.97457 1.41431 0.834442 7.11643 4.2554 16.1717
137 46 2 3.02694 1.02845 0.703863 -4.4423 0.219029 -6.84948
210 70 2 3.65548 6.29584 -1.7932 10.9867 3.73316 -7.47519
403 135 1 0.718251 5.40318 -1.58867 -3.40445 -12.8898 21.642
404 135 2 1.61575 5.67618 -1.16094 3.35807 3.31361 -6.23572
405 135 2 0.147916 5.16015 -0.753475 -1.91621 2.09858 -11.1727
209 70 2 4.0354 5.22972 -0.566466 8.74579 -4.47303 3.57596
208 70 1 3.36381 5.90181 -0.904445 -17.2701 3.97202 -1.27887
467 156 2 1.25634 3.77902 -2.5307 -1.16506 -3.55289 -3.60027
90 30 2 4.98686 4.66119 2.49006 0.982674 1.01492 3.81908
158 53 2 2.49616 5.86437 2.29737 16.5313 -1.0524 14.4586
157 53 1 3.36578 5.72656 2.85079 -2.85321 7.34225 -14.3201
513 171 2 -5.02447 -1.8594 3.25041 2.70773 8.53858 -19.2822
512 171 2 -4.43249 -1.80961 4.74085 2.13901 0.330393 2.90081
511 171 1 -5.13347 -2.26236 4.15825 -4.63137 -2.25235 10.759
235 79 1 -2.87419 -0.370292 3.81014 -12.6092 -2.26235 17.2714
236 79 2 -2.52226 -1.26997 3.47139 12.6958 8.20304 -9.4079
494 165 2 -4.78199 -6.16072 4.73267 -0.017799 5.30765 8.7798
599 200 2 -6.41661 -3.23439 4.22023 -16.936 -28.6044 26.322
598 200 1 -7.18727 -3.86355 4.62816 26.0424 26.4074 -22.3164
495 165 2 -3.97628 -5.6129 6.23743 -15.0459 -5.91457 -17.7174
493 165 1 -3.99474 -5.67604 5.19067 14.5841 4.77001 12.0511
41 14 2 -7.00177 -2.9643 8.3428 4.7279 -5.11585 10.2968
42 14 2 -7.02903 -3.10746 6.73571 2.95002 -3.5018 -12.8499
40 14 1 -7.0903 -2.43043 7.482 -3.38644 -0.631707 -7.34853
238 80 1 -2.62974 -3.32131 6.73964 1.65815 -1.11128 -0.461318
240 80 2 -2.53015 -3.80569 5.84281 5.11224 8.4489 0.0235013
239 80 2 -2.43871 -2.313 6.69265 5.6786 7.26136 -3.79875
106 36 1 -5.85656 -3.98765 9.51753 -3.92599 24.5634 3.50439
246 82 2 -3.42676 -4.29895 7.52384 1.1134 -1.7761 -0.342644
244 82 1 -4.00146 -5.0714 7.9365 -7.42664 -11.8617 4.58086
245 82 2 -4.8111 -4.60725 8.38561 4.16562 -1.07443 1.27344
582 194 2 -2.49659 -6.0244 9.44073 12.5156 -24.7903 -2.24551
218 73 2 -2.28465 -0.196002 5.66464 5.65035 -4.53949 9.25585
217 73 1 -2.03721 -0.586292 6.59105 -31.6073 -14.3248 -18.8461
219 73 2 -1.24906 -0.101793 7.01331 16.1297 15.0894 6.81275
70 24 1 -6.25541 -0.109523 8.43516 17.7377 33.8732 19.8534
462 154 2 -2.46577 -5.50633 4.88935 8.89559 0.86568 -1.55235
460 154 1 -1.43163 -5.5711 4.73353 -9.25374 -8.35565 0.574005
72 24 2 -6.4747 -1.04259 8.13509 -11.0312 -27.1164 -10.3457
374 125 2 -0.0231954 -4.82836 5.38616 -12.0132 6.14279 -10.5892
126 42 2 -6.56805 -0.763263 5.70908 5.42667 4.56593 3.12617
150 50 2 -0.26068 -7.22488 6.74818 1.56267 -1.37781 -14.525
161 54 2 -6.32242 -6.96102 4.79144 2.21895 4.18186 -17.0199
461 154 2 -1.3504 -6.50268 4.31814 8.11387 2.18734 -3.18985
160 54 1 -6.23953 -6.52111 3.84212 11.7881 -41.3254 18.1476
162 54 2 -6.67711 -5.63189 3.83285 -14.933 35.77 3.68594
607 203 1 -0.271741 -3.28365 9.34985 -23.8142 -14.0185 4.87986
608 203 2 -1.16623 -3.55283 8.89649 16.294 9.62693 4.26663
580 194 1 -2.02732 -6.95217 9.55792 -30.3528 26.481 23.2801
429 143 2 2.16729 -3.12352 3.43607 -1.3705 -5.87316 -8.13195
100 34 1 5.36659 -0.798082 3.69758 3.19651 -0.0761821 -5.92711
590 197 2 1.03287 -1.1388 3.96685 6.05357 -23.6297 -9.39243
101 34 2 4.91186 -0.0274828 4.16987 -4.37775 9.44221 3.49334
600 200 2 6.44341 -3.33898 4.41394 -8.39387 -6.14036 7.48133
204 68 2 1.64908 -0.85442 8.90108 -5.24197 19.0718 -6.22987
203 68 2 1.01584 -2.32373 9.23054 -8.62446 -4.63645 3.2211
261 87 2 6.49616 -6.47186 6.07128 -3.43384 1.79078 8.59041
202 68 1 1.87732 -1.76058 9.24533 17.2502 -13.2919 3.97572
435 145 2 4.29889 -3.79102 4.39611 -4.86001 4.21038 -3.34475
63 21 2 0.880498 -4.36748 9.01635 -1.04342 -5.8619 -0.194617
61 21 1 1.44408 -5.09218 8.53116 -2.33658 5.95065 -4.08624
62 21 2 1.20444 -4.9253 7.54446 0.582818 -0.473873 -1.32005
433 145 1 4.69758 -3.0351 4.96551 -3.49005 -13.5643 12.9121
110 37 2 4.49762 -3.28026 8.20625 -0.0756552 -4.99429 5.89244
434 145 2 4.36757 -3.19396 5.95287 2.29697 11.7509 -13.2891
259 87 1 5.9553 -5.87058 6.70277 2.15997 -4.59718 -6.04755
260 87 2 6.19598 -4.91301 6.44237 -2.62171 -1.41026 1.07326
411 137 2 2.60642 -6.35107 8.1761 1.05966 8.26745 -4.57721
410 137 2 4.13146 -6.22196 7.36589 -29.7141 -15.808 1.10936
409 137 1 3.23682 -6.77718 7.4759 35.9865 7.06 1.30319
375 125 2 1.05525 -3.4743 5.24927 -17.1835 -8.88156 -0.145931
373 125 1 0.724477 -4.27402 5.81901 27.0161 2.22041 13.382
589 197 1 0.874293 -2.16738 3.73595 6.78907 10.3158 24.2176
457 153 1 5.28314 -3.84246 9.6071 14.3274 15.3915 -1.45031
389 130 2 2.56238 -5.7447 5.55869 0.605007 0.741349 19.0919
390 130 2 2.53689 -5.29629 4.00423 15.9419 -18.8346 6.71101
111 37 2 2.86308 -3.07874 7.84696 9.65649 2.95581 0.0934074
109 37 1 3.82408 -2.98552 7.48115 -13.9515 -16.1684 -2.63193
388 130 1 2.85336 -6.06326 4.65211 -15.1917 18.0712 -32.1521
102 34 2 4.91621 -1.67585 4.00932 4.17929 -1.59773 6.00882
291 97 2 6.02902 -6.92547 8.29375 11.8878 5.53758 24.8685
289 97 1 6.26659 -7.06798 9.31011 -27.6735 4.5111 -16.2178
23 8 2 4.23987 -1.23121 8.01708 -6.59035 -7.00785 0.978032
22 8 1 4.9855 -0.63285 7.67778 13.4496 10.4943 -18.9553
24 8 2 5.43867 -1.18213 6.92404 -3.82006 11.3837 18.1699
566 189 2 -4.96245 2.40529 3.4869 -1.46318 -5.65508 3.4721
237 79 2 -2.28483 0.467212 3.67364 1.53098 -6.55815 -3.05113
48 16 2 -3.52194 5.38142 8.06696 2.22252 -4.25551 -0.39823
211 71 1 -0.285357 1.00288 7.77335 5.51443 2.15438 8.1334
92 31 2 -4.77127 0.969872 8.35128 25.9316 4.35624 7.51499
212 71 2 -0.569595 1.53421 8.59133 -2.81626 0.417864 -0.160769
91 31 1 -3.75929 1.25704 8.35222 -9.64398 -15.9186 -16.6844
93 31 2 -3.22423 0.547683 7.82088 -6.0776 4.82919 7.69638
71 24 2 -6.51565 0.532838 7.70247 -7.81041 4.2464 -10.7969
124 42 1 -6.75667 0.228046 5.54157 -4.15855 -10.9236 -3.93856
47 16 2 -4.28035 6.8841 8.185 1.36276 -17.6202 -3.50877
46 16 1 -4.39616 5.88764 7.91211 3.76242 20.993 8.66898
302 101 2 -5.43219 6.29229 6.8215 -6.62886 -1.16305 -1.08923
303 101 2 -6.84176 5.83814 6.01531 -0.551073 -11.3894 -2.36654
301 101 1 -6.23716 6.61555 6.23643 -4.59132 13.0977 -9.1737
149 50 2 -1.66244 6.24893 6.51629 -0.160719 -0.950789 -17.0743
450 150 2 -6.00864 1.8501 5.43549 2.35562 -18.7169 2.49507
527 176 2 -1.62261 5.62279 4.65745 5.37414 4.53666 -19.2847
27 9 2 -0.66691 2.42152 4.38135 -3.50907 1.0471 -6.48048
528 176 2 -3.28233 5.87533 4.48977 8.40052 -6.90231 -5.35892
25 9 1 -1.54984 2.04204 3.98902 7.55812 -1.77311 15.1404
26 9 2 -2.30458 2.45489 4.56211 -0.799221 0.831273 -1.31175
448 150 1 -5.78678 2.79071 5.74481 -5.74941 24.4224 9.48654
167 56 2 -6.58882 3.98968 9.04172 2.21162 -9.86809 8.33393
168 56 2 -5.05485 3.89017 8.54032 5.27854 -4.0625 2.82401
166 56 1 -5.71636 3.44053 9.17259 -10.8399 12.3169 -3.362
526 176 1 -2.53417 5.53877 5.11986 -16.2883 9.87792 23.3673
449 150 2 -4.77056 2.95125 5.95708 -10.1616 -7.93019 -11.6832
148 50 1 -1.07587 6.80527 7.13908 -1.90019 1.90604 32.4517
65 22 2 -2.99894 4.23076 5.63908 -2.60555 -17.273 -2.33761
66 22 2 -2.9267 3.14119 6.86693 6.71732 1.79431 18.0204
64 22 1 -3.22306 3.22878 5.90935 1.79565 5.77812 -18.0965
641 214 2 -2.91323 2.65868 8.38582 -0.498457 29.9316 17.9036