ITEM: TIMESTEP
10500
ITEM: NUMBER OF ATOMS
648
ITEM: BOX BOUNDS pp pp pp
-7.3082141918122252e+00 7.3082141918122252e+00
-7.3082141918122252e+00 7.3082141918122252e+00
-1.6240475981805339e+01 1.6240475981805339e+01
ITEM: ATOMS id mol type x y z fx fy fz
489 163 2 -4.38911 -3.89872 -14.6158 -3.37591 -2.54313 -1.4034
487 163 1 -5.25024 -4.08845 -15.1451 5.75533 11.5296 -9.52062
488 163 2 -5.99737 -4.30886 -14.47 -4.07156 -7.26016 4.74853
170 57 2 -1.48888 -1.34539 -12.1521 0.984186 -4.39171 5.42376
599 200 2 -4.12952 -4.63921 -12.5248 2.22041 -0.618993 -2.54064
598 200 1 -4.81704 -5.16277 -11.9604 -6.79427 -2.68637 15.3575
142 48 1 -7.12186 -4.89872 -13.4438 -1.45079 6.49242 15.3176
172 58 1 -2.98241 -3.64832 -13.3442 -11.4007 2.87561 -6.16067
173 58 2 -2.22799 -3.69836 -14.0091 8.71293 -10.8174 -6.2095
174 58 2 -2.92871 -2.66035 -13.0665 0.385233 7.19412 6.75813
105 35 2 -4.03279 -1.19187 -10.9822 -2.59945 6.91278 16.8761
103 35 1 -4.30154 -0.720788 -10.0993 -4.57113 -0.865296 -10.6409
169 57 1 -2.23915 -1.10538 -12.8113 -15.646 -0.0635754 -4.69068
600 200 2 -5.65427 -5.43338 -12.5014 13.1711 6.17168 -4.52782
632 211 2 -0.830452 -2.7325 -10.2649 -12.2532 -20.9179 14.1119
631 211 1 -0.615852 -1.93461 -10.8542 34.6553 21.6084 -16.7132
210 70 2 -4.20353 -5.75281 -10.3725 7.55449 3.35234 -0.226821
161 54 2 -7.28419 -6.76622 -16.0297 -8.89983 -4.26461 10.2727
141 47 2 -6.27704 -2.46422 -15.9823 -8.10454 -5.5615 2.99179
190 64 1 -7.15126 -6.91114 -11.2795 20.8742 22.7101 -19.0815
191 64 2 -6.65916 -6.16415 -10.7721 -9.02798 -15.0286 4.06901
224 75 2 -1.28197 -0.425724 -10.328 4.89523 -7.71976 -6.87121
612 204 2 -5.41235 -0.508098 -13.1223 -0.764574 2.81878 -8.52976
611 204 2 -5.94352 -0.803029 -14.7317 6.4938 4.0509 5.63544
610 204 1 -6.10078 -0.944903 -13.733 -7.01055 -7.40093 1.76901
81 27 2 -5.516 -3.89112 -10.2204 16.9239 -6.82869 -12.5653
623 208 2 -6.12252 -0.0673756 -10.5872 22.1936 -4.63033 4.20429
171 57 2 -2.24769 -0.0663494 -12.9103 3.15952 -7.11731 2.27456
47 16 2 -0.195694 -5.78827 -16.2198 1.4775 6.85436 9.25917
143 48 2 7.28381 -5.51371 -12.6573 -4.0524 -12.8132 -0.655432
633 211 2 0.281904 -2.15435 -11.337 -17.4444 -1.64158 -3.60529
144 48 2 6.7279 -4.23457 -13.454 -4.85455 4.24057 -3.15021
435 145 2 5.19781 -1.38347 -13.745 -3.73782 11.8275 -3.06867
434 145 2 6.60707 -1.19906 -12.7762 -14.064 -3.4381 -11.2559
433 145 1 5.6645 -1.63076 -12.8695 20.7089 -3.49901 12.464
89 30 2 2.4223 -1.55465 -11.1992 7.9655 0.0489584 -0.0289818
637 213 1 0.90875 -5.38547 -9.98125 7.71594 -1.41675 12.2578
160 54 1 7.03957 -5.77889 -16.1287 8.24347 11.938 -26.5722
282 94 2 5.91171 -4.2826 -16.1514 -5.23147 -1.01813 5.73678
280 94 1 5.36717 -3.40362 -16.1403 -1.23906 -2.26893 0.30171
281 94 2 4.53918 -3.50116 -15.5312 6.56453 -1.01502 -2.46516
584 195 2 1.8525 -3.35683 -11.736 3.64375 -0.5678 9.88327
583 195 1 1.54361 -2.78261 -12.511 -11.0639 -4.79219 21.4726
585 195 2 1.59473 -3.47296 -13.2559 4.40228 5.802 -18.7522
638 213 2 1.85369 -4.97162 -10.0759 7.13067 -2.49584 2.33084
84 28 2 2.19858 -3.29192 -15.4024 -1.06288 2.09679 -2.72482
82 28 1 2.78554 -3.72061 -14.6793 3.5398 -2.13694 -10.1018
514 172 1 4.66086 -3.95251 -12.0642 -1.30051 3.1887 -18.101
206 69 2 4.12849 -4.47301 -10.6306 2.53269 2.99075 -2.1053
205 69 1 3.40026 -4.66325 -9.92004 -12.1133 -2.70145 14.9077
83 28 2 3.00413 -4.67853 -14.9942 6.53496 -4.91681 3.40232
543 181 2 4.44431 -0.550322 -15.7866 9.67651 4.24464 1.64451
90 30 2 1.23966 -1.22455 -10.1916 -9.4401 5.55563 11.3433
226 76 1 1.66238 -6.09628 -12.4068 28.2342 -9.89536 -10.9813
228 76 2 0.8417 -6.30881 -12.9583 -10.668 1.24403 0.278693
227 76 2 1.56443 -6.31096 -11.4086 -13.7832 8.09531 0.342652
515 172 2 3.87467 -4.09851 -12.706 3.8533 -3.0905 1.95874
516 172 2 5.03274 -3.01733 -12.3201 4.6068 1.311 4.61195
88 30 1 2.21929 -1.4585 -10.2005 0.23833 -2.69093 -11.3305
542 181 2 3.06197 -0.706608 -15.079 0.161849 6.76536 11.2354
541 181 1 4.03943 -0.480901 -14.8594 -5.48452 -10.4707 -14.5858
527 176 2 0.844703 -0.00746815 -16.0162 5.42906 -10.0559 0.495893
27 9 2 6.74226 -1.49636 -10.6541 -7.71847 -4.58152 0.371026
25 9 1 6.55921 -2.13872 -9.87154 -5.82777 1.26564 15.4851
627 209 2 4.14259 -6.79656 -14.6708 0.748036 0.396733 2.719
625 209 1 3.80501 -6.09455 -15.3329 -7.05017 -13.5861 -2.26945
147 49 2 1.89381 -6.34404 -14.831 0.0914939 0.344544 -2.86481
145 49 1 0.903495 -6.4405 -15.076 -6.58803 -16.7666 0.277785
294 98 2 -3.15408 5.81069 -14.9774 -3.52173 5.76485 -11.2796
163 55 1 -4.88092 5.33483 -13.6176 0.712189 -3.77034 -7.32188
165 55 2 -5.52369 5.67266 -14.3385 -0.593155 0.996354 6.41692
104 35 2 -3.57413 0.00175576 -9.91901 0.457304 -14.6437 -6.47599
361 121 1 -4.32267 0.484432 -16.061 -0.620263 9.44531 -16.7828
164 55 2 -5.37418 5.11676 -12.7536 -0.979663 4.16384 -1.39691
292 98 1 -2.93938 5.72486 -15.9843 -2.87325 -10.1763 11.1761
421 141 1 -7.28283 6.18434 -15.7681 10.9493 -2.70074 3.2808
362 121 2 -4.71743 1.07845 -15.3166 2.50494 -1.92242 8.03215
237 79 2 -6.15389 2.75374 -11.6107 2.88327 8.07751 11.7318
471 157 2 -5.86381 2.15766 -13.3134 16.7012 0.608511 -6.72404
469 157 1 -5.06424 2.03947 -13.9771 -6.57462 6.79265 3.25147
470 157 2 -4.21876 2.57324 -13.7254 -14.0551 -4.34283 5.17735
129 43 2 -1.24381 2.31414 -12.9818 4.31688 -3.86588 5.57779
235 79 1 -7.05464 2.71111 -12.102 0.913993 -9.85825 -5.53934
540 180 2 -0.554181 3.46504 -11.5728 -2.27297 0.287488 -13.1767
223 75 1 -1.90737 0.348124 -10.0883 -3.92043 14.3322 8.70146
225 75 2 -1.47447 1.29269 -10.2461 -3.01295 -12.0976 1.57075
127 43 1 -1.74222 1.41733 -13.1386 -8.28647 4.5139 -17.1259
128 43 2 -1.32084 0.993694 -13.9689 1.34757 -3.12581 -0.0217138
198 66 2 -2.47035 2.59528 -15.7099 -0.753913 5.76028 -2.81263
531 177 2 -6.73084 3.17544 -14.5765 7.1519 4.51296 11.5261
197 66 2 -2.54036 4.21401 -16.2288 2.99541 -8.54408 -0.990897
538 180 1 -0.144209 3.34458 -12.5198 12.0241 6.95312 30.7918
622 208 1 -6.98428 0.171004 -11.0529 -19.9496 -0.955444 0.527621
31 11 1 -4.98775 2.62533 -10.3689 -3.63365 -0.942645 4.66016
32 11 2 -4.02982 2.34256 -10.2296 9.03898 0.142073 -3.12539
580 194 1 -0.967964 0.00501692 -15.9071 -19.355 13.6861 -3.84986
99 33 2 2.82251 6.9288 -12.9097 6.52278 14.7157 5.06557
422 141 2 6.95714 5.34276 -15.3238 -4.8175 -4.36827 2.9369
529 177 1 6.99577 3.45267 -14.9629 7.16705 13.5648 -0.80667
236 79 2 7.1933 1.79185 -11.819 0.535848 2.38698 -4.37819
464 155 2 5.47361 2.48482 -10.0238 -1.81875 -2.65815 5.64288
97 33 1 3.11967 6.12639 -13.4501 1.59013 13.1803 9.53287
98 33 2 2.23373 5.65825 -13.5514 -11.3294 -17.7922 -12.4075
189 63 2 0.27017 4.4471 -13.8029 -5.90688 -7.26927 6.79817
187 63 1 0.553497 5.26033 -14.3539 12.588 17.4827 -15.423
530 177 2 6.85679 2.67786 -15.6055 -13.9154 -11.5249 -9.14739
188 63 2 0.906987 4.97664 -15.278 -3.66548 -7.08878 8.20856
539 180 2 0.809961 3.04662 -12.2685 1.24274 -3.63269 -11.292
298 100 1 2.76221 2.30824 -11.7436 -0.0727119 6.8055 15.98
299 100 2 3.71642 2.10712 -12.0413 -6.64891 -2.59355 -8.06192
300 100 2 2.90768 3.0802 -11.0828 -5.87428 -0.453428 -0.205389
647 216 2 4.43008 4.77633 -12.5561 4.9396 2.56791 -9.0447
273 91 2 4.47106 6.58217 -10.4802 -8.77523 12.2872 11.0925
58 20 1 3.5942 2.31841 -14.6327 -11.8781 -10.2844 -18.4303
59 20 2 3.90066 2.99123 -13.918 9.80749 4.20798 6.86567
646 216 1 4.74801 3.8587 -12.8768 8.73973 -6.21205 10.4622
648 216 2 5.75417 3.78737 -13.0828 -2.66749 5.50495 0.0754437
192 64 2 6.71667 7.22003 -10.7852 -8.34369 -2.65542 11.8988
624 208 2 6.95356 0.322274 -10.3053 -5.51822 6.44287 -2.60087
271 91 1 5.32759 6.76859 -9.9621 21.9884 -1.07774 1.4525
146 49 2 0.590227 7.2169 -14.852 2.78148 5.43461 -1.68045
60 20 2 3.95669 1.376 -14.4299 -3.88446 4.2977 -2.99155
78 26 2 2.49027 3.14638 -15.6785 2.38419 -5.80957 -0.909756
621 207 2 -2.30403 -4.10413 -9.054 -16.7761 -6.73004 0.0320942
620 207 2 -0.825411 -3.79599 -8.31397 3.19287 -3.64234 -6.77995
619 207 1 -1.32481 -3.95645 -9.21503 3.57093 13.0824 -2.9957
209 70 2 -4.14469 -6.88065 -9.14923 2.98834 13.4535 -0.897145
148 50 1 -1.93903 -7.10585 -4.36677 28.7895 -20.7278 -0.843281
149 50 2 -1.81346 -6.30641 -4.9885 -12.9503 14.474 2.45583
19 7 1 -6.05575 -2.0805 -3.63482 22.1022 -4.18214 13.5874
21 7 2 -6.9218 -1.63248 -3.89715 -16.3258 18.7748 0.168311
150 50 2 -2.60053 -6.97534 -3.61148 -10.4371 9.16886 6.44423
319 107 1 -0.288692 -2.08121 -4.86202 8.35425 1.8168 8.36262
122 41 2 -3.96628 -1.51226 -8.31022 7.18023 -20.2611 13.6993
121 41 1 -3.5342 -1.83344 -7.41119 -3.36572 8.21203 -7.23424
123 41 2 -3.76333 -2.76169 -7.05849 -4.07708 -1.14708 -13.4478
85 29 1 -1.66446 -6.59062 -7.65683 6.29106 -13.0074 -10.5354
86 29 2 -2.25594 -6.23074 -8.43212 1.82879 3.09083 10.1338
12 4 2 -2.81061 -4.1816 -4.86173 1.59358 5.05141 6.1946
208 70 1 -3.73749 -5.97543 -9.47748 -5.90589 -15.1803 0.661381
10 4 1 -2.00513 -4.48923 -5.41971 2.56432 -16.4054 -7.36407
11 4 2 -1.24239 -3.81461 -5.35772 -0.78509 10.2928 1.52547
231 77 2 -6.65042 -2.97482 -4.78897 -2.92994 -7.85786 -1.6786
229 77 1 -7.20566 -3.55056 -5.44936 -4.13006 -1.18413 -0.789486
230 77 2 -6.6139 -4.31556 -5.79358 -5.97261 -2.53709 -7.3743
79 27 1 -5.94385 -3.84727 -9.31523 -6.58474 -3.96426 7.60166
80 27 2 -6.78655 -3.30574 -9.50653 -12.6712 8.72906 6.68398
39 13 2 -4.71033 -2.93746 -3.72721 -3.27823 -15.0559 2.92167
87 29 2 -1.53933 -5.95095 -6.88448 -7.36979 15.4014 0.510404
336 112 2 -5.76452 -6.51811 -7.41893 5.08234 -27.1855 1.06681
24 8 2 -4.30896 -0.488861 -6.4524 11.8289 -10.3154 -0.415062
307 103 1 -6.60091 -7.19929 -4.3048 8.5172 -8.94264 -22.1377
309 103 2 -6.28699 -6.60582 -5.07386 -4.13963 7.40405 4.08157
606 202 2 -7.23646 -0.408253 -5.60263 -12.957 2.75198 2.53659
334 112 1 -6.26841 -5.70897 -7.10334 5.62986 8.17151 5.38719
335 112 2 -6.04607 -5.10533 -7.89248 -7.08093 19.3232 -5.87888
444 148 2 -0.357224 -7.27628 -3.71289 7.81848 3.78456 4.00476
38 13 2 -3.28081 -2.34329 -3.63248 8.86678 -8.79099 1.06019
37 13 1 -3.73608 -3.26483 -3.59425 4.3983 25.2463 -4.77366
505 169 1 -3.52276 -0.30711 -3.37501 -10.8268 -6.50591 -25.0696
207 69 2 3.76536 -4.81452 -8.96866 8.35916 -2.15593 -5.11538
635 212 2 0.518379 -2.65324 -7.18476 -1.20913 -0.229477 -4.80458
634 212 1 0.503774 -3.64392 -7.45126 -8.77242 15.3413 -4.84164
636 212 2 1.13251 -4.12182 -6.76136 -1.8729 3.1671 -4.16114
639 213 2 0.390552 -4.69421 -9.43264 -13.2548 -4.87469 -0.513996
449 150 2 2.88216 -4.19419 -5.35608 14.1956 -0.251271 1.78969
8 3 2 2.04313 -6.85811 -9.3516 10.485 -3.00306 -5.9387
321 107 2 0.107851 -1.29099 -5.38336 -5.14656 -3.23355 -13.6441
261 87 2 6.93513 -1.29508 -8.16119 1.32897 -0.540263 -3.35897
320 107 2 0.484227 -2.43674 -4.30241 -9.04345 -5.4903 5.13737
26 9 2 5.58241 -2.09246 -9.50947 10.3894 1.88399 -8.63667
259 87 1 7.09723 -1.1449 -7.16027 0.435894 -2.59216 -12.9447
448 150 1 1.9255 -4.42061 -5.5992 8.3401 -10.3769 28.6648
450 150 2 1.35306 -4.17552 -4.7856 -1.31961 -6.30847 1.72015
43 15 1 4.08287 -1.69956 -8.32747 11.3411 -10.1048 -3.89417
45 15 2 3.61419 -1.21139 -7.56255 -1.6169 -3.1533 -5.53098
44 15 2 3.44418 -1.91897 -9.12658 -1.73901 13.4239 13.494
283 95 1 4.76379 -4.47655 -4.62045 3.70187 14.7131 -3.73672
285 95 2 4.63409 -3.79116 -3.83589 3.55546 -6.25448 -15.1226
246 82 2 1.45373 -0.127006 -6.99088 -9.09815 -6.95871 -0.889551
244 82 1 0.519248 -0.554373 -6.91795 8.05661 10.7826 1.79313
272 91 2 5.41247 -7.05386 -9.3014 -21.5707 -9.66571 -11.1489
548 183 2 5.13651 -6.37076 -7.04717 12.9096 -8.0761 -9.56339
547 183 1 4.4384 -5.79571 -7.50089 -2.44096 1.40739 14.145
549 183 2 3.96967 -5.46676 -6.66217 -9.21316 8.91919 -7.23478
260 87 2 6.65811 -1.9866 -6.7822 4.00094 -2.10663 9.42021
284 95 2 5.62258 -4.22658 -5.15911 -6.81024 0.450306 12.1703
443 148 2 1.08668 -7.11687 -4.43913 12.0245 1.63765 -11.051
442 148 1 0.670614 -7.27102 -3.53551 -14.422 -3.61812 10.2789
269 90 2 2.52125 -0.211746 -4.82143 7.73479 0.0559588 -4.13534
268 90 1 3.16288 -0.784366 -5.40976 -1.91966 -7.17561 7.72042
270 90 2 3.64474 -1.44706 -4.80025 -0.766101 -1.66343 -3.53916
456 152 2 4.85667 -6.07769 -4.69814 -0.425795 12.8995 13.4464
454 152 1 4.94116 -7.09349 -4.79253 -7.27794 -28.4263 -4.43396
604 202 1 6.98649 -0.0394851 -4.71259 2.37963 6.66044 3.79528
483 161 2 -0.0718676 2.54687 -9.27308 2.58498 -1.61348 -13.1686
481 161 1 -0.997689 2.71932 -9.71371 26.4652 14.3956 -0.12372
482 161 2 -1.43903 3.01193 -8.85484 -18.3532 2.55773 4.21407
119 40 2 -5.28711 5.60371 -8.45969 -2.90443 1.68216 3.82393
342 114 2 -0.61981 6.79205 -8.47593 -10.7416 6.60625 -1.50143
340 114 1 -0.635882 5.97586 -9.09711 -14.4635 -7.42376 2.48741
118 40 1 -4.8407 6.49722 -8.24965 1.52104 11.3207 -9.30488
341 114 2 -1.62785 5.84947 -9.37052 23.4009 2.6076 0.914754
22 8 1 -4.33779 0.519795 -6.56941 -16.191 5.96269 -7.0749
645 215 2 -1.27547 0.26666 -5.20002 14.3591 10.963 10.6939
312 104 2 -1.75464 0.762738 -8.43106 -2.22847 4.4022 -5.5391
310 104 1 -1.75584 1.23751 -7.51849 -9.53938 -24.7367 19.0057
492 164 2 -2.30271 5.88397 -5.6157 -3.2564 12.4424 3.02442
308 103 2 -6.59501 6.49979 -4.76986 -3.90866 -0.824756 9.52418
245 82 2 -0.187355 0.107349 -7.26025 0.847006 1.29875 -1.38695
23 8 2 -4.92989 0.59685 -7.4171 4.9656 15.8084 11.7149
644 215 2 -0.435745 1.14063 -3.89154 0.839803 -10.9119 -15.4647
643 215 1 -1.30022 0.932443 -4.4081 -6.24033 -4.20969 5.85417
311 104 2 -2.53396 0.801964 -6.97802 5.72943 16.3341 -8.74042
67 23 1 -6.49176 1.14334 -8.34381 7.25089 4.52039 -1.91567
68 23 2 -6.83925 0.332397 -7.83374 -1.91998 -8.84252 8.50669
33 11 2 -5.51428 2.33445 -9.53746 -2.26345 -1.06038 -1.36685
490 164 1 -3.17006 5.75795 -6.13196 5.77277 -12.7022 -9.70907
491 164 2 -3.81238 5.22514 -5.56116 -10.1153 -1.03765 0.036473
617 206 2 -0.919945 4.73695 -6.95994 5.68718 -4.91837 3.08292
120 40 2 -4.04486 6.40174 -7.60846 0.138355 -9.36744 10.4165
618 206 2 -0.258732 4.32473 -5.46019 2.38177 -2.81541 7.96766
616 206 1 -0.155953 4.24914 -6.47281 -0.690707 7.63415 -11.2509
590 197 2 -2.42233 2.02506 -3.87107 -4.3017 6.16633 -3.24006
589 197 1 -3.3296 2.50195 -3.72172 1.56213 14.3119 -5.48055
591 197 2 -3.25163 3.46676 -3.38426 10.5406 -4.45569 4.62808
507 169 2 -4.042 0.0344985 -4.19121 -16.836 -3.79084 13.5553
95 32 2 -5.03428 2.0595 -4.39061 28.6167 6.8982 4.42202
151 51 1 -6.13166 4.64311 -5.6774 6.17155 6.23905 11.0658
94 32 1 -5.85229 1.7345 -3.90326 -51.5965 -22.1392 -23.4486
152 51 2 -5.90396 3.91372 -4.99813 -7.99948 -1.58812 -10.0869
153 51 2 -6.63402 4.34823 -6.51835 1.02026 -1.3936 1.65956
506 169 2 -2.67417 0.115678 -3.74041 23.7061 2.56195 15.5317
605 202 2 -6.99454 0.717775 -4.37419 4.87356 -4.90996 -3.99678
463 155 1 5.61608 1.72097 -9.3545 2.33765 5.16027 2.84733
7 3 1 2.19293 6.74389 -9.2554 -20.2292 18.1545 9.02591
9 3 2 1.25653 6.49141 -8.92287 0.931164 -13.3792 -9.817
455 152 2 4.61953 6.96835 -3.98617 6.14314 15.0096 -5.50557
181 61 1 1.21239 2.4745 -8.13462 8.23882 6.23304 17.15
69 23 2 7.27939 1.56876 -8.73619 -7.18031 6.04224 -1.97277
465 155 2 4.94735 1.80335 -8.57079 3.78488 -3.67265 -6.65594
183 61 2 0.710124 3.04595 -7.43299 -7.51601 3.08454 -6.32479
179 60 2 1.38802 5.42423 -6.2836 6.7217 0.111244 6.96466
178 60 1 2.05124 6.11508 -5.89822 -17.3076 -8.5675 -3.38646
477 159 2 4.1498 2.20065 -6.08458 0.606437 3.60221 -1.35141
475 159 1 4.04155 1.4321 -6.74001 1.47081 15.9827 -4.65071
476 159 2 4.22196 0.575413 -6.21948 -6.03699 -10.6331 -2.23014
180 60 2 1.94149 6.96885 -6.41603 3.65266 11.2938 -7.52851
182 61 2 2.01848 2.14389 -7.60145 4.29209 -5.88883 -8.77031
328 110 1 2.14626 1.00557 -3.74502 7.72978 16.4367 9.09843
330 110 2 3.12583 1.31189 -3.70523 1.69642 -6.48178 -5.95238
479 160 2 2.51211 3.56834 -9.13128 -1.18741 15.8717 -3.19293
478 160 1 3.0854 4.27004 -9.62853 3.93354 -27.0934 -8.16346
480 160 2 2.7095 5.23134 -9.65146 -3.74259 1.88903 9.89855
502 168 1 6.77377 5.15816 -8.31525 4.65827 -19.6098 16.6356
503 168 2 6.1688 5.39801 -9.0983 1.05541 9.30177 -8.44514
504 168 2 6.11796 5.14925 -7.50959 2.82972 8.03153 -6.79489
445 149 1 4.75807 5.72651 -6.69319 5.8731 15.1188 14.8809
446 149 2 4.8732 6.50024 -5.98672 4.57009 -19.4113 -5.50823
447 149 2 3.81231 5.86303 -7.02502 -7.47367 -6.27629 -4.43923
486 162 2 0.93254 5.50216 -3.63213 3.39831 -4.26316 -10.3176
602 201 2 5.55341 2.89935 -3.76421 0.77432 -7.99873 2.55306
601 201 1 5.17296 1.94936 -3.88559 -1.9774 3.95447 -17.8502
484 162 1 0.388606 4.62708 -3.65672 -6.66922 6.76899 20.9719
603 201 2 5.76631 1.35755 -4.49677 -1.7553 9.04355 6.78178
20 7 2 -5.57806 -1.5632 -2.88182 -9.80445 0.0248848 -7.12827
594 198 2 -7.02368 -6.88001 -2.72714 9.27914 -9.73158 -1.56601
567 189 2 -7.22987 -3.47195 -1.17541 6.90733 8.92261 5.88122
339 113 2 -6.01756 -1.11066 -0.54307 9.94059 2.58717 10.6786
350 117 2 -5.3687 -5.41563 -0.0708232 -0.336568 -2.47874 -4.55762
558 186 2 -3.77514 -0.861303 -0.395562 -2.64661 -6.2368 -1.22374
349 117 1 -4.46259 -5.41369 -0.545771 -2.59395 -5.4386 10.1459
351 117 2 -3.75932 -5.27695 0.168073 3.93091 5.78674 0.297163
337 113 1 -6.99062 -1.37262 -0.59783 -10.7307 2.96207 -34.2669
34 12 1 -0.730932 -6.15167 -0.766058 6.47715 0.300031 5.54232
35 12 2 -1.00797 -6.09759 0.227622 -4.46268 6.99284 3.10513
238 80 1 -3.37385 -2.28915 -0.746492 6.67421 -2.03873 4.95877
240 80 2 -3.54492 -2.7084 -1.66698 6.73224 -6.02548 1.9724
239 80 2 -2.37502 -2.04437 -0.56793 -6.62092 -12.0009 -12.6598
374 125 2 -2.04025 -6.12749 2.27283 -14.3923 -1.2661 8.84363
166 56 1 -6.76264 -5.49786 1.5855 -13.7242 3.07714 5.88909
168 56 2 -7.16502 -4.95376 2.36522 3.54236 -3.41977 -1.93004
167 56 2 -7.2368 -6.40991 1.64712 7.28213 1.12218 -3.09026
521 174 2 -2.88318 -2.85126 2.82251 4.96918 -6.31894 9.48928
559 187 1 -3.59162 -6.00841 2.82851 -12.9813 -12.9446 -3.29981
373 125 1 -1.22534 -5.72824 1.80403 18.1649 19.6166 -5.56763
215 72 2 -0.192556 -0.213439 0.283489 -5.56601 -9.11697 3.74139
425 142 2 -0.170062 -4.43101 -2.42999 -6.16582 -3.05444 6.94544
306 102 2 -1.98593 -6.86997 -1.34824 0.430452 4.29988 -0.509289
537 179 2 -2.81148 -0.9704 2.16465 12.1235 -6.11335 2.15793
535 179 1 -2.70949 -0.364966 2.97652 -34.4753 21.7911 8.33248
305 102 2 -3.65659 -6.74759 -1.37873 -1.44397 8.78066 0.0056015
561 187 2 -4.0876 -6.76309 2.31825 -6.36818 4.5324 8.03739
592 198 1 -6.96166 -6.83324 -1.69209 -16.3591 21.1214 1.23231
520 174 1 -1.88377 -2.85692 2.53204 11.0745 -12.644 -17.8638
91 31 1 -0.823952 -1.93726 -0.0150743 -1.14607 14.7882 -12.4635
93 31 2 -1.40442 -2.04442 0.830199 17.4729 -17.9582 7.9639
332 111 2 -5.27498 -3.15147 2.71656 -11.2764 5.89348 -0.362405
560 187 2 -4.27839 -5.35864 3.22152 4.86679 -0.78333 -2.44181
375 125 2 -1.38146 -4.71052 1.91997 4.75656 -7.92662 -1.52547
566 189 2 7.30072 -4.60973 0.128714 2.14079 7.50452 -3.52253
413 138 2 2.46399 -5.34254 -1.76771 1.79249 -14.2649 -2.52681
523 175 1 4.19652 -2.46592 -2.92262 -16.1706 -23.9762 -26.8542
414 138 2 2.01741 -6.89667 -2.22172 -9.01053 1.6046 -9.97123
412 138 1 2.63681 -6.35054 -1.62256 -4.76695 12.4645 5.86768
593 198 2 7.29938 -5.8807 -1.48191 6.11007 -13.8184 2.83068
565 189 1 6.89519 -4.25796 -0.757118 -8.79006 -20.3849 -0.556391
338 113 2 7.16133 -1.37799 0.303475 6.09865 -2.46523 21.127
36 12 2 0.248413 -6.39627 -0.690233 6.80787 -2.56498 -9.07523
279 93 2 6.17571 -0.317709 -1.61383 7.95771 -7.90064 4.05981
135 45 2 1.19815 -2.01835 2.94947 -3.7728 -17.5792 14.7896
277 93 1 5.35199 -0.161958 -2.19163 -7.61445 -4.5816 14.3586
524 175 2 4.34116 -1.45786 -2.88549 10.5831 7.09027 22.7886
609 203 2 2.68869 -3.10965 -0.813031 17.4642 0.38149 10.9939
525 175 2 4.14482 -2.99804 -2.0351 7.38051 11.443 3.73261
424 142 1 0.608417 -3.92029 -2.82865 15.6241 7.58987 -16.7438
426 142 2 0.950408 -3.16083 -2.22598 -4.30484 -8.32119 7.96703
608 203 2 1.69073 -2.17902 0.264683 16.0826 0.343316 6.42811
607 203 1 1.75676 -2.82515 -0.526842 -32.4369 3.44764 -6.75957
195 65 2 4.01987 -0.368518 0.698545 1.22933 -2.04698 -7.6675
134 45 2 0.861175 -0.589658 2.20927 4.13221 0.252787 -3.70256
133 45 1 1.53949 -1.35146 2.26775 0.0298344 15.9158 -20.9116
175 59 1 7.28463 -1.77043 2.11791 -21.6724 -13.036 6.19547
177 59 2 6.34873 -2.22114 2.1281 4.09892 5.03103 -13.6524
157 53 1 4.20847 -4.05392 -0.753052 -2.56735 6.23999 -8.99972
158 53 2 3.8092 -4.76959 -0.16093 -0.470801 -7.06031 5.49007
159 53 2 5.21359 -4.27506 -0.890089 2.77938 4.6586 4.76058
544 182 1 1.27157 -6.98768 2.45586 9.02867 -6.49309 1.49472
545 182 2 0.559458 -6.26184 2.29892 -6.7363 -4.91623 -3.46984
176 59 2 7.2582 -1.53124 3.10712 19.9722 8.17685 9.02939
92 31 2 0.00315178 -2.55018 -0.171946 -13.1667 2.76687 12.0527
63 21 2 4.09581 -7.13669 2.65747 13.284 12.181 7.82805
303 101 2 4.04417 -2.87832 2.95336 -9.04079 -3.87505 9.1724
301 101 1 4.67859 -2.19391 2.55858 11.217 5.73523 -8.31658
62 21 2 2.70317 -6.41251 2.91722 -0.408969 4.71266 -1.53413
61 21 1 3.71846 -6.2779 3.07459 -7.99508 -15.1145 -8.20439
302 101 2 4.46803 -1.27366 2.94628 -6.99094 -2.78719 5.22574
420 140 2 -4.70749 5.74998 -1.10034 -2.22979 9.32019 -6.83373
557 186 2 -4.06463 0.391796 -1.39875 2.34233 2.27427 4.55122
556 186 1 -4.16587 0.0964418 -0.417805 -15.3217 19.598 -3.78348
347 116 2 -5.36163 6.08931 0.9344 0.578794 9.86354 -0.0265865
346 116 1 -5.06034 6.37626 1.88735 7.17242 -3.85336 -9.16516
348 116 2 -5.43625 5.61338 2.47428 -0.316135 3.25745 1.56764
418 140 1 -5.62886 5.71155 -0.667738 6.9485 -23.9506 11.6918
419 140 2 -6.2793 6.41471 -1.05676 1.00198 12.8412 -7.36913
304 102 1 -2.86071 7.27584 -1.65817 -9.68509 -5.69352 -4.12462
291 97 2 -2.95902 6.01806 1.67897 -7.4774 -10.6781 -2.25403
289 97 1 -2.216 5.3129 1.62708 -3.76122 25.6382 3.96183
290 97 2 -2.54053 4.36141 1.47231 -1.92369 -2.99815 -1.68174
110 37 2 -5.37035 3.75738 -1.05314 1.09396 12.8127 6.05875
111 37 2 -5.92593 2.24773 -0.558372 0.824553 6.7845 6.68998
96 32 2 -5.86966 1.96739 -2.92262 14.8995 15.0697 22.2252
109 37 1 -5.55783 2.80952 -1.34235 -7.45766 -6.1944 -22.7306
570 190 2 -2.57712 5.85181 -2.24629 5.45763 -11.4515 5.92977
569 190 2 -1.60848 4.59335 -1.62522 -3.03303 -1.06623 10.85
254 85 2 -5.7103 1.63843 1.69894 -9.50898 10.9909 17.5498
568 190 1 -2.27375 4.84802 -2.33965 -0.988531 2.74672 -13.8988
253 85 1 -6.24967 1.62531 0.827937 32.0487 -23.6793 6.00436
467 156 2 -0.455192 2.24 1.19133 0.680087 -7.43571 -12.9932
466 156 1 -0.492645 3.26271 1.15667 12.107 -4.71682 36.916
468 156 2 -0.172721 3.53125 2.12386 -6.98729 -4.3284 -27.2718
116 39 2 -0.743536 5.64751 0.768665 -12.9023 1.4644 10.9951
17 6 2 -5.28034 3.34214 2.99098 9.33725 20.2072 20.0582
485 162 2 -0.395083 4.87236 -3.04336 -6.0833 -7.39354 -12.0708
255 85 2 -5.52527 1.00466 0.422906 -9.55019 -3.42979 -14.8727
597 199 2 -1.15629 6.13183 2.89931 2.97527 -5.66776 -1.75893
400 134 1 -4.53722 1.60498 3.05203 8.59463 -12.649 3.75144
402 134 2 -3.83453 0.844255 2.94068 2.51682 8.61609 -18.9819
329 110 2 1.72199 1.69015 -3.10236 -7.60086 -8.63031 1.96869
216 72 2 0.495216 1.14062 -0.198821 7.84683 13.8551 -9.1707
214 72 1 0.150857 0.682109 0.631751 -3.62911 -6.70062 3.88585
563 188 2 2.12575 2.93617 -1.37752 -3.24223 -1.41815 -2.28339
562 188 1 1.1986 2.6079 -1.71214 2.44471 -5.63891 3.97764
278 93 2 5.66334 0.238808 -3.06955 1.86162 8.16026 -9.89559
550 184 1 3.7513 3.0729 -0.889699 2.10073 9.15573 -2.78221
551 184 2 4.54105 3.42345 -1.47763 -4.93141 -12.3084 5.86736
552 184 2 3.87934 2.11068 -0.539544 0.828133 -0.595559 -4.18154
194 65 2 4.3456 0.270449 -0.899397 0.880234 -11.2053 19.1685
193 65 1 4.08398 0.458412 0.100604 -6.85685 9.70115 -19.9206
115 39 1 0.258827 5.80363 0.659656 27.2172 -7.50185 -17.4153
249 83 2 2.76302 2.30105 1.5817 -1.64017 1.14484 0.356359
248 83 2 4.08918 1.67874 2.30308 -9.69828 9.02666 1.47254
117 39 2 0.558365 4.90495 0.241239 -3.71242 11.6415 11.4921
614 205 2 5.18703 5.78678 1.77961 -2.29625 -4.15079 0.327072
546 182 2 1.06259 6.78617 1.88152 -9.08907 13.3298 -2.60703
564 188 2 0.745302 3.29646 -2.30925 2.38158 7.33844 -6.8834
315 105 2 7.05124 3.93504 -1.5884 -1.32135 0.163826 -6.30949
313 105 1 6.10466 4.07597 -1.9516 -2.14728 -1.28985 11.5366
368 123 2 3.97473 4.76235 0.306066 3.88184 -12.4257 -9.02934
369 123 2 2.80828 5.59863 1.01226 -16.3589 6.33901 1.28224
367 123 1 3.69003 5.16138 1.1915 8.04439 4.75218 12.0203
314 105 2 5.72747 4.92593 -1.51918 1.38358 7.53677 -7.34498
409 137 1 5.86229 2.20132 1.28176 0.557008 8.99962 -9.99803
410 137 2 5.37944 2.18976 0.377115 -0.721177 -1.67921 14.6413
411 137 2 6.83768 1.93846 1.03013 1.91934 -0.762652 10.7236
386 129 2 4.83803 6.68966 -0.0291237 -1.95056 7.11158 -7.52644
385 129 1 4.58899 6.5744 -1.01493 16.8081 -23.6033 1.26764
387 129 2 3.82521 7.17923 -1.33256 -5.51288 13.7147 3.29296
247 83 1 3.12055 2.0025 2.48557 10.5439 -12.3849 1.77698
615 205 2 6.38235 5.78789 2.90583 1.00192 1.67529 -1.47937
613 205 1 6.00354 6.31126 2.11367 -2.35851 0.543948 1.91983
221 74 2 6.20242 3.08579 2.79528 14.8925 8.12849 8.61496
522 174 2 -1.19761 -3.04456 3.27747 -7.35994 2.06379 0.705429
536 179 2 -1.78734 -0.348013 3.44516 6.96115 1.77266 -7.28635
578 193 2 -0.826883 -6.35829 4.66156 -2.07532 8.55146 13.9467
579 193 2 -1.56109 -6.637 6.08921 3.94246 10.7781 0.867054
577 193 1 -1.01174 -5.93421 5.58789 0.187003 -18.4158 -11.2155
333 111 2 -4.69657 -2.75057 4.28059 -8.58456 2.59812 1.62914
331 111 1 -4.47444 -2.99519 3.31754 17.4682 -6.36849 -1.77099
5 2 2 -7.06297 -6.61196 6.50484 0.3247 1.54925 -4.68735
459 153 2 -5.26437 -4.30381 8.0158 14.5079 0.669655 -21.8594
458 153 2 -3.65203 -3.89106 7.94525 6.37445 5.16037 -7.90319
457 153 1 -4.37272 -4.45408 7.46793 -28.5424 -5.43197 23.8111
126 42 2 -3.80173 -0.639104 4.44178 5.58613 -5.51284 -11.1781
250 84 1 -6.99021 -1.56861 4.89928 -14.9485 7.74945 0.699726
251 84 2 -6.15627 -1.01078 5.14607 -0.260012 -6.10549 -0.400407
266 89 2 -1.76917 -5.99387 9.49414 21.7728 1.77373 -1.57862
125 42 2 -3.8004 -0.0356099 5.95101 -6.99903 -12.0946 -4.54782
124 42 1 -4.40682 -0.49615 5.24692 3.15472 18.6584 15.9618
441 147 2 -1.22849 -4.13427 8.68606 -0.746569 7.59382 -4.20866
439 147 1 -0.562684 -4.91139 8.69785 2.03877 -8.61828 -11.0281
440 147 2 -0.223968 -5.11873 7.74489 -7.15229 4.97972 11.0609
404 135 2 -2.38916 -2.15742 7.58326 2.2352 -0.472519 7.63731
405 135 2 -2.70386 -2.0734 9.1997 9.48278 -12.0893 -23.0792
403 135 1 -2.53636 -2.76077 8.41095 -2.99099 1.99125 12.4347
106 36 1 -2.1034 -0.281164 7.27718 -11.4868 14.3684 6.35753
203 68 2 -6.49311 -3.79551 9.66928 6.42648 0.932974 -9.53338
575 192 2 -3.71635 -7.25704 8.58804 1.53686 6.51774 -3.41188
202 68 1 -6.74117 -4.0616 8.71185 -16.8713 -2.36321 27.9207
574 192 1 -4.51042 -7.11322 7.95354 -3.04264 -9.87154 2.25924
576 192 2 -4.6152 -6.11134 7.73574 8.90368 4.82117 -2.81221
359 120 2 1.70291 -3.73918 4.12361 -5.22207 15.6894 -23.1518
377 126 2 0.773434 -0.109326 8.73704 8.74615 5.02592 13.2536
4 2 1 6.93334 -6.72634 5.70528 3.74358 9.46032 1.65486
6 2 2 6.97734 -5.88571 5.08925 -6.64857 -13.1773 6.02962
360 120 2 0.519651 -3.46396 4.92573 -21.9507 12.294 2.35275
358 120 1 0.766187 -3.31641 3.95233 25.4609 -27.4466 20.8308
252 84 2 6.77162 -1.13174 5.30205 11.632 -4.51937 0.511232
398 133 2 3.58845 -4.88621 3.92719 7.02215 -1.40629 -6.63428
397 133 1 3.51831 -4.04004 4.51827 -10.8173 -20.1968 15.0981
399 133 2 3.4709 -4.45657 5.47327 8.33174 16.1582 -9.03204
451 151 1 6.67724 -4.4277 4.06162 23.572 8.06995 3.63092
453 151 2 5.72749 -4.07597 3.98951 -8.77326 1.05676 1.78346
256 86 1 2.55542 -2.58798 7.61933 5.69051 -13.5565 -2.48747
258 86 2 2.95626 -3.5208 7.36283 -4.31827 16.2087 8.20281
452 151 2 7.27361 -3.69414 4.48448 -11.1929 -4.62475 -3.95135
287 96 2 3.79873 -5.98039 7.56006 -7.77632 12.5038 -4.3569
286 96 1 3.93306 -4.96712 7.29387 10.0397 7.33666 -0.598677
288 96 2 4.68311 -4.59356 7.88875 -8.19183 0.827454 -2.04846
364 122 1 5.2703 -0.0551757 6.14018 -4.7263 18.3267 -4.79012
431 144 2 0.0748653 -0.114774 4.78081 3.70129 -3.81644 0.372956
533 178 2 0.994695 -0.107995 6.33095 -1.69248 -23.5782 -1.27006
534 178 2 1.65319 -1.64208 6.59793 -1.86267 -1.78191 -3.47057
532 178 1 1.11867 -1.07073 5.90863 4.27234 28.8499 7.95629
257 86 2 3.03842 -2.234 8.44804 -1.52061 -1.95717 -4.24917
427 143 1 3.27486 -0.112289 4.42959 20.8391 2.72443 -6.6479
428 143 2 2.45784 -0.509461 4.8887 -12.4151 -6.66061 2.75357
366 122 2 4.5577 -0.135101 5.39379 0.875003 -8.12113 -3.49152
204 68 2 6.84512 -4.00031 8.75131 7.34767 3.31758 -11.0319
406 136 1 5.10898 -3.6397 9.71737 -1.3981 -10.513 6.61604
430 144 1 -0.460954 0.424515 4.08849 -2.62176 -7.69591 1.518
16 6 1 -5.57844 4.2737 3.37615 -7.79222 -10.9253 -17.5651
50 17 2 -2.38078 2.35711 4.79865 -3.80613 1.17405 -7.39089
51 17 2 -3.40734 2.66574 6.13646 -2.40711 6.44862 -8.76053
18 6 2 -4.93791 4.85717 3.91899 11.3963 -13.9912 5.82269
2 1 2 -7.0555 1.36151 9.34263 -16.3474 3.67086 -2.34756
100 34 1 -7.16381 0.958871 7.45048 -10.8831 8.30719 20.1357
317 106 2 -5.18982 4.06932 7.12274 -5.05098 12.5389 -1.39512
595 199 1 -0.904943 6.36051 3.8681 -1.20117 -0.792084 11.1691
401 134 2 -4.7183 1.35362 4.01443 -15.5486 8.79264 11.4275
510 170 2 -2.57267 6.16118 4.49282 -0.860039 4.06348 4.82248
509 170 2 -3.89474 6.9619 5.15137 -4.24224 14.2201 1.58072
508 170 1 -3.4315 6.0733 5.06207 5.69618 -21.4606 -7.25594
354 118 2 -1.62109 3.61329 7.34917 6.51195 10.2251 -0.847376
352 118 1 -1.11425 4.49517 7.17242 -8.58347 -12.0483 -16.0563
353 118 2 -1.16739 4.72546 6.17214 -3.24459 0.0541174 11.3408
316 106 1 -4.51806 3.87832 6.3753 6.94289 -19.8224 4.05213
108 36 2 -1.62783 0.514156 6.84471 0.708394 -2.97949 -1.26858
107 36 2 -2.43723 0.0297283 8.21496 7.67591 -14.2469 -11.9016
101 34 2 -6.40023 0.794369 6.8253 4.4554 -3.7845 -12.9149
49 17 1 -2.55978 2.19164 5.77902 10.7598 -7.35907 13.6246