ITEM: TIMESTEP
8000
ITEM: NUMBER OF ATOMS
648
ITEM: BOX BOUNDS pp pp pp
-7.2863365737782226e+00 7.2863365737782226e+00
-7.2863365737782226e+00 7.2863365737782226e+00
-1.6191859052840826e+01 1.6191859052840826e+01
ITEM: ATOMS id mol type x y z fx fy fz
129 43 2 -2.14505 -1.19225 -14.3077 11.5346 -8.09665 -6.60921
128 43 2 -2.37891 -2.74448 -14.5371 6.61158 4.70368 -1.81237
127 43 1 -1.6006 -2.06365 -14.4473 -22.053 9.7049 6.77569
633 211 2 -4.9692 -2.09486 -14.6879 2.71434 1.74224 18.1184
631 211 1 -4.18889 -2.74526 -14.7365 -19.7387 9.05475 -8.07917
632 211 2 -4.39816 -3.06928 -15.6762 12.9167 -16.7389 -12.7764
542 181 2 -0.423734 -2.30917 -13.1713 -0.020928 -3.76038 -13.2957
489 163 2 -3.81873 -5.65854 -11.4072 -7.3729 3.07726 -3.33553
487 163 1 -4.52302 -6.06972 -12.0367 -7.7298 -4.4709 -3.10438
626 209 2 -2.43971 -6.59267 -15.346 3.08181 1.15352 -2.17623
625 209 1 -3.13825 -6.95369 -14.6992 -3.71067 2.01509 16.6265
627 209 2 -2.84801 -6.87771 -13.7106 -0.343723 -2.80236 -7.94488
294 98 2 -4.48205 -5.70776 -15.5125 -8.81911 -4.42525 -9.33946
237 79 2 -6.64431 -6.6042 -12.7606 1.21305 -8.84253 -3.58718
14 5 2 -0.779564 -4.62815 -15.4339 11.777 -5.01014 8.29423
488 163 2 -4.80553 -5.45794 -12.8064 7.1295 1.76058 9.79239
363 121 2 -3.05257 -3.55657 -10.2407 4.85401 3.89879 -0.624054
361 121 1 -3.06436 -4.5438 -10.0168 -4.92069 -11.7676 0.941792
471 157 2 -1.65741 -6.55884 -11.4865 7.24573 -9.46443 5.66515
27 9 2 -5.81108 -2.77523 -11.863 -8.05997 -7.59899 2.51049
89 30 2 -6.85469 -1.2016 -10.0512 -2.95048 -11.3596 0.506341
434 145 2 -6.94018 -5.05701 -15.8586 9.26421 6.38265 -2.3991
88 30 1 -6.83914 -0.27293 -10.4467 6.44367 4.32245 -0.738541
362 121 2 -2.10099 -4.93848 -9.94209 -3.45168 7.79652 -3.7106
340 114 1 -0.557271 -5.46665 -10.1916 31.6406 -4.78268 2.01717
26 9 2 -7.11237 -3.75864 -11.3512 10.6006 5.82094 -5.45476
25 9 1 -6.12174 -3.50391 -11.2116 -8.86935 2.05953 3.13242
623 208 2 -3.1686 -0.0319494 -10.4392 15.5148 -13.7892 3.55564
292 98 1 -5.3234 -5.78496 -16.1101 0.38313 -8.11345 8.05667
528 176 2 -0.00485294 -1.40463 -15.0442 -2.34362 10.3024 -1.50805
139 47 1 6.90277 -2.74389 -13.7189 -0.168363 22.1748 2.4921
543 181 2 0.535825 -2.47026 -11.8531 4.83564 -2.74731 -22.7248
541 181 1 0.452125 -2.74146 -12.8653 -1.39955 -1.65765 34.6643
15 5 2 0.128267 -4.38701 -14.0216 3.77141 13.0655 8.75755
13 5 1 0.0198674 -4.96114 -14.8533 -18.4911 -2.59525 -14.6978
636 212 2 0.244822 -0.913047 -9.73702 -3.86946 -0.0535648 2.17154
634 212 1 0.66513 -1.46118 -10.4852 13.0995 10.1672 3.34661
235 79 1 6.98086 -6.78545 -13.1 -13.092 20.5629 7.93026
141 47 2 6.74798 -3.37763 -14.5147 -0.247134 -5.31326 -2.24218
637 213 1 5.30977 -1.46253 -10.2649 3.35905 10.5788 -18.2739
140 47 2 6.22482 -2.95935 -12.9722 5.47803 -9.16869 -8.04215
639 213 2 5.96935 -0.721512 -10.5787 -3.92471 -11.1887 4.94212
190 64 1 5.62437 -4.49147 -12.0809 13.1399 -30.6552 16.2646
192 64 2 5.99393 -5.34355 -12.5438 -0.330459 7.49724 -5.54218
160 54 1 3.45296 -3.13165 -14.6052 14.9699 -15.232 37.9283
635 212 2 1.38683 -0.839337 -10.8822 -5.65646 -7.86927 -2.9865
282 94 2 4.03494 -2.19417 -11.5493 -8.79836 9.536 10.1325
280 94 1 3.55125 -3.05192 -11.8138 7.96939 11.438 -3.51742
162 54 2 3.86788 -4.08803 -14.63 -6.00177 8.78641 -15.4189
191 64 2 5.37943 -4.8715 -11.1327 0.977207 11.0047 -3.81273
170 57 2 1.66169 -4.44829 -12.1422 1.46068 13.2078 -6.99933
97 33 1 3.63188 -7.17639 -10.8314 6.74072 -1.3584 1.72059
144 48 2 4.13161 -6.55525 -14.4466 8.77764 8.01686 5.37572
169 57 1 1.68051 -5.44459 -11.973 4.63154 -4.17694 13.2701
171 57 2 2.60442 -5.67966 -11.5739 -8.63672 -7.97576 -6.09248
527 176 2 1.47092 -1.35342 -15.6809 3.3826 -0.550439 -0.274467
161 54 2 3.38926 -3.02389 -13.5683 -9.00922 8.03949 -15.8277
423 141 2 3.97314 -2.09032 -15.7456 -9.43905 -3.77251 -6.00938
587 196 2 6.73229 -0.902021 -13.6583 -14.2067 6.95646 9.23547
83 28 2 0.292064 -6.55475 -14.4841 0.1673 5.91575 -3.43053
281 94 2 4.41858 -3.62859 -11.8573 -11.9025 -12.5715 -4.58407
342 114 2 0.394021 -5.47169 -10.6394 -24.7546 1.48188 -4.10733
433 145 1 6.70147 -4.6321 -15.7433 7.76869 -12.5504 0.190099
435 145 2 6.11887 -5.42454 -15.445 -11.5541 11.455 3.02595
142 48 1 4.21466 -5.68878 -14.9825 -18.1139 -25.7219 4.17381
526 176 1 0.695328 -0.739631 -15.4206 5.85201 -19.112 1.84646
500 167 2 1.21027 -5.4545 -15.7993 7.37579 0.702366 -10.153
143 48 2 3.29434 -5.69956 -15.4649 6.69634 10.7556 -10.4111
23 8 2 -3.09952 0.51317 -12.7057 -1.64652 5.61624 -4.48835
469 157 1 -1.86491 7.07406 -11.8411 -8.40262 2.56983 -15.3087
588 196 2 -7.16095 0.467431 -13.9725 4.57339 9.27849 8.03623
22 8 1 -3.69487 0.518068 -11.8742 0.132355 -6.24461 4.53938
231 77 2 -5.16242 6.65643 -10.8285 5.43385 -12.7864 -19.6367
24 8 2 -4.68358 0.689155 -12.0971 7.34262 1.4692 -1.5082
90 30 2 -6.19176 0.244229 -9.86635 3.24014 8.84023 2.79379
539 180 2 -2.49773 1.09384 -15.4056 7.74769 2.84545 -2.93771
538 180 1 -2.46674 0.647706 -14.4798 -32.1728 -20.2013 1.85546
188 63 2 -2.11376 4.162 -12.7327 2.47602 11.0005 -7.79528
189 63 2 -1.75585 5.53731 -13.7223 -6.35005 -16.7746 8.25835
187 63 1 -1.88459 4.51235 -13.6927 4.20388 6.29853 -5.96457
198 66 2 -2.10969 4.62704 -16.0199 3.6949 -6.36427 -5.99365
246 82 2 -3.419 3.12768 -11.6171 -1.3344 -0.237527 3.07937
540 180 2 -1.48962 0.42805 -14.2927 15.409 14.8277 -0.844027
481 161 1 -6.62896 3.06235 -13.5971 14.8368 -19.2781 3.65809
482 161 2 -6.1467 2.16876 -13.8512 -8.80654 18.329 1.17176
245 82 2 -2.72146 3.89895 -10.3692 3.05701 1.37885 -1.09393
244 82 1 -2.53063 3.5491 -11.3077 -10.0233 -6.28786 3.54905
470 157 2 -1.23911 6.36155 -11.4201 5.28953 11.9305 2.32985
555 185 2 -4.34382 0.545884 -14.1967 -17.0929 5.25167 -4.7138
553 185 1 -5.3831 0.641027 -14.2472 9.68767 -5.22261 -5.71101
554 185 2 -5.67772 0.498875 -15.2301 6.78593 6.50062 -2.5452
531 177 2 -5.45155 5.10558 -13.7082 1.34226 -0.0351866 -3.08101
529 177 1 -5.64848 6.00707 -14.1456 -5.92486 2.37718 -0.833392
530 177 2 -4.80181 6.5618 -14.3124 4.0232 -4.89674 -0.61659
81 27 2 -6.1598 2.84161 -11.85 -3.79958 3.7771 -24.5697
329 110 2 -0.968171 2.54757 -13.6258 -2.67902 -9.61674 -0.910242
328 110 1 -0.206631 1.92205 -13.9107 9.13935 28.6106 -1.31152
229 77 1 -5.61545 5.90036 -10.3083 -16.6179 1.85923 27.3689
584 195 2 -0.778486 2.9234 -11.3061 -1.28997 0.260563 -1.47438
230 77 2 -5.81095 4.95346 -10.6631 16.4498 12.2865 -16.908
80 27 2 -5.6905 2.74884 -10.3246 11.7405 -1.97531 3.69191
79 27 1 -5.34906 2.97636 -11.2589 -0.954537 1.97565 29.0404
586 196 1 6.52621 0.118066 -13.6003 11.4365 -24.23 -17.5029
600 200 2 7.176 6.75641 -16.0951 -2.0143 -0.538556 -8.17628
583 195 1 0.200259 3.20277 -11.4294 15.7629 7.0043 10.6813
483 161 2 7.03406 3.17364 -14.0538 -2.31594 -0.12635 -8.33115
236 79 2 6.86495 6.85033 -13.4664 11.1285 -7.21461 -0.209429
585 195 2 0.87513 2.42949 -11.4305 -4.98148 -3.82747 -4.37641
612 204 2 5.40526 4.03074 -14.6813 -4.25379 -1.57841 8.57656
200 67 2 1.85121 0.174521 -14.6094 -0.144061 -1.37359 3.16535
201 67 2 2.42199 0.854252 -13.2337 -2.05746 0.138052 8.87823
199 67 1 2.69353 0.606547 -14.1867 -21.424 -0.953549 2.58282
98 33 2 4.36962 6.66994 -10.8604 -6.30185 5.07836 4.06827
8 3 2 2.18143 1.1125 -10.3607 5.27461 5.83624 -22.7175
84 28 2 0.0960218 6.74321 -13.4861 -2.35374 -0.791715 10.8033
82 28 1 0.406188 6.99645 -14.4166 1.71197 -11.5138 2.78457
179 60 2 3.87154 0.699537 -15.0342 -4.09217 7.14197 5.79629
178 60 1 4.73496 0.94085 -15.5682 36.4128 -18.3089 -8.85308
180 60 2 5.51337 0.584304 -14.9689 -13.2683 11.3036 -3.75654
335 112 2 5.76923 4.80314 -11.9829 -13.2224 17.2322 6.05024
7 3 1 2.3154 1.15786 -11.413 6.36228 -5.86246 8.27634
330 110 2 0.490038 2.63724 -14.1488 2.86409 -15.8678 -2.04112
9 3 2 3.31574 1.25339 -11.679 -6.97125 1.32639 10.3166
224 75 2 5.70717 1.12095 -12.4784 11.7745 1.71103 -16.3145
223 75 1 5.16 1.74576 -11.8822 -27.6613 1.31603 36.6524
225 75 2 5.1883 2.76309 -12.034 8.99066 -1.20197 -20.4288
271 91 1 5.83544 5.71841 -10.4388 5.53167 -10.3802 -23.2603
273 91 2 6.63894 6.33569 -10.4444 5.9611 4.44534 -0.396726
479 160 2 5.33439 1.96395 -10.1376 10.2464 -6.84875 -2.02285
334 112 1 5.24932 4.42367 -12.7821 0.502168 -20.9415 -21.8612
226 76 1 2.71331 5.41706 -13.9664 -1.11932 -11.9897 -12.9433
336 112 2 4.46163 4.95019 -13.1921 -1.51446 6.62844 17.3519
228 76 2 1.95944 6.08811 -13.8186 -0.182771 6.87868 2.75112
118 40 1 0.301348 5.86758 -10.8951 3.423 -4.03243 4.58577
611 204 2 5.35239 2.98791 -15.9801 -15.849 -16.4787 -6.16155
610 204 1 5.95055 3.51081 -15.3662 20.8346 17.3416 -4.62098
227 76 2 2.28027 4.64453 -14.5087 13.119 2.07391 6.12345
119 40 2 0.451178 4.86706 -11.1033 -3.76584 -2.40892 -1.55462
99 33 2 3.01926 7.27174 -10.0142 -1.7989 -4.97269 -3.4655
120 40 2 0.84259 6.13054 -10.0616 0.566737 2.0689 -5.26856
218 73 2 0.703407 5.87742 -15.8305 -10.0411 5.53543 1.4554
298 100 1 2.15092 3.09928 -15.5269 -14.3397 18.3859 -15.869
299 100 2 2.61641 2.31214 -15.0771 0.167935 -11.5443 -3.90961
449 150 2 -4.93162 -2.98359 -8.00356 -7.76 -2.55423 5.50799
311 104 2 -0.955186 -0.749154 -5.58465 -3.77706 -8.60937 7.95069
172 58 1 -5.5378 -4.93927 -8.73945 0.76549 -3.16454 2.9919
173 58 2 -4.60282 -4.89999 -9.16752 4.45473 -0.745134 -0.2761
621 207 2 -1.35379 -3.16527 -7.74381 6.67141 -7.4182 -3.0082
620 207 2 -0.272155 -2.6049 -8.97081 5.47502 -13.8241 -0.0836811
619 207 1 -0.985957 -2.36681 -8.29178 -16.7522 19.7602 -1.97551
624 208 2 -2.22203 -0.967114 -9.16866 13.7327 -1.0913 -11.96
312 104 2 -0.804168 -1.11478 -7.23885 -3.14736 -2.35983 7.62992
310 104 1 -0.823212 -0.380389 -6.50882 9.00862 14.7249 -12.1017
174 58 2 -6.18865 -4.65963 -9.47254 1.39954 3.55153 -3.28145
567 189 2 -2.81829 -2.43152 -4.4368 -5.95099 9.82071 -0.209313
593 198 2 -5.84034 -6.78047 -8.17571 -5.94687 13.3684 14.314
413 138 2 -2.42158 -5.26186 -6.61953 -12.0976 4.65726 13.8663
105 35 2 -3.80857 -7.18107 -6.30244 5.47172 4.78637 -10.7872
148 50 1 -0.749521 -7.18786 -7.55696 7.19413 12.1339 11.7433
104 35 2 -3.957 -6.25047 -5.05183 3.89962 12.0095 19.3187
103 35 1 -3.65093 -6.21568 -6.01249 -7.13463 -20.7745 -4.70927
341 114 2 -0.397176 -6.01243 -9.33998 -8.18961 -1.80851 -1.02735
618 206 2 -3.73798 -0.452196 -5.15361 8.09001 -1.13841 -19.2383
44 15 2 -5.49018 -4.38922 -5.86218 -10.5652 5.94036 22.3353
414 138 2 -1.50241 -3.98355 -5.85475 -7.87508 -11.5155 -6.45722
412 138 1 -1.79247 -4.45128 -6.73067 20.2922 11.0223 -4.98796
149 50 2 -0.928593 -6.21751 -7.27287 0.111446 -2.2365 -3.91586
19 7 1 -1.13292 -2.68465 -4.15703 6.88641 -2.66352 -4.59762
21 7 2 -0.221975 -2.66716 -4.64997 -3.07772 -3.57046 -2.46593
448 150 1 -4.98428 -1.99299 -7.76324 17.4763 -9.86524 -19.4068
450 150 2 -4.3094 -1.55609 -8.41468 -7.4444 7.50386 11.2176
69 23 2 -5.74646 -0.958392 -6.73146 0.890642 8.02979 -9.3269
67 23 1 -6.10602 -0.0465308 -6.37702 3.69896 -4.49407 24.5938
622 208 1 -3.03915 -0.453185 -9.48551 -29.4326 4.47986 7.85084
261 87 2 -7.07745 -0.282099 -4.56228 -7.13972 -2.66923 11.5297
566 189 2 -4.42922 -2.79812 -4.67531 -1.98385 1.39817 -3.51301
565 189 1 -3.77656 -2.01779 -4.4963 5.65674 -22.0396 0.24508
43 15 1 -5.85808 -4.08104 -4.93447 28.0899 -2.02002 -25.7839
45 15 2 -6.8401 -4.27132 -4.8461 -11.5181 -1.80088 1.10809
39 13 2 -5.91689 -7.07615 -3.58767 0.289345 5.50112 2.23945
515 172 2 5.54817 -4.5364 -8.75011 -4.66954 -8.95238 -0.71918
516 172 2 4.78228 -6.01548 -9.24466 2.64572 3.96983 2.65253
514 172 1 5.16522 -5.10291 -9.5114 5.19867 6.01509 -0.667658
638 213 2 4.90964 -1.16879 -9.38493 -3.24612 0.0104206 15.458
206 69 2 2.88438 -3.54908 -8.55035 9.0873 -5.65459 1.68469
477 159 2 4.11823 -1.41121 -6.40861 2.83591 -4.20897 -3.56495
603 201 2 6.63879 -6.78915 -3.39431 8.75863 5.10418 -2.32794
123 41 2 1.6456 -3.09528 -6.75446 -10.476 -5.01082 -7.82899
475 159 1 4.56284 -1.01693 -7.23317 -12.3998 -11.1277 1.108
368 123 2 4.79494 -5.36479 -3.25324 10.146 -4.71858 -4.3754
601 201 1 5.62394 -6.8784 -3.34633 -5.26437 -9.92302 4.53047
205 69 1 1.98916 -3.11258 -8.392 1.64776 -0.15888 -4.11619
122 41 2 1.8887 -2.28142 -5.36552 -16.1955 -11.1625 7.47566
121 41 1 1.24124 -2.96144 -5.81629 10.9116 13.4292 8.20918
207 69 2 1.71881 -2.72249 -9.28921 -4.31958 5.64502 -5.03869
476 159 2 5.16424 -0.205409 -6.9489 5.98425 -7.49263 -8.05861
87 29 2 3.05151 -1.30618 -3.31917 9.07298 -7.67354 -8.06703
85 29 1 2.26838 -1.29819 -3.98598 -7.14103 10.5734 4.89259
259 87 1 7.18554 -0.467709 -3.59092 6.24692 0.351956 -11.2551
86 29 2 1.7058 -0.464612 -3.82656 -3.33847 5.8232 -0.144594
12 4 2 2.22604 -7.06229 -7.09856 8.86693 1.95459 3.8978
10 4 1 2.49283 -6.81316 -6.1414 -6.11939 -1.9392 3.36367
444 148 2 0.902336 -6.57839 -4.03867 2.19667 1.73312 -7.28164
592 198 1 -6.18505 6.86654 -7.91703 7.57337 9.72631 -4.28053
38 13 2 -6.06269 7.12088 -5.27744 0.598566 3.64835 2.26495
456 152 2 -7.07615 4.86285 -4.5334 6.9305 -2.45647 1.18173
616 206 1 -3.64634 0.556504 -4.96048 -12.7823 -11.6185 21.5099
617 206 2 -3.69986 0.335459 -3.96014 6.79585 25.418 -1.70733
68 23 2 -5.40465 0.34873 -5.7405 3.75054 1.99666 -9.63807
594 198 2 -5.88695 6.42049 -8.79366 -4.27691 -18.819 -2.74351
31 11 1 -2.90027 3.07382 -6.13196 -24.2547 -18.0997 16.824
32 11 2 -3.05097 2.13148 -5.68165 7.19439 20.1121 -9.88359
33 11 2 -3.81065 3.56317 -6.11992 16.9178 -6.314 -1.42105
150 50 2 -1.01562 6.80127 -6.73421 0.0151743 -3.76776 -11.4365
182 61 2 -0.0676001 3.3075 -5.83798 0.309847 5.74372 -12.414
464 155 2 -3.77946 1.02073 -9.0364 -0.856667 -0.234685 15.3436
454 152 1 -6.98206 3.84993 -4.41169 -8.27405 2.32843 5.41331
463 155 1 -4.29895 1.66971 -8.41869 -4.35434 7.84656 -7.47156
465 155 2 -3.79561 1.86838 -7.55063 2.2022 -2.87671 -7.13517
490 164 1 -1.36343 5.68144 -5.56813 3.14377 -7.86884 4.90169
492 164 2 -1.39505 4.73477 -5.96006 -7.75781 3.61142 -3.69753
491 164 2 -1.76004 5.62728 -4.60458 3.69379 6.62673 -4.70268
37 13 1 -6.28429 6.87498 -4.31365 -5.985 -12.1105 -8.61325
284 95 2 2.08657 0.952414 -7.99302 -1.00868 4.2161 14.3947
272 91 2 5.72787 5.38651 -9.46902 -8.89639 9.26748 5.16618
548 183 2 6.44939 5.86014 -7.73631 -0.166971 6.67824 -5.77249
547 183 1 5.44111 5.93377 -7.90659 14.2486 -9.59418 22.8262
478 160 1 5.43285 2.11254 -9.12295 -0.242949 -1.99879 -6.89489
283 95 1 1.74818 1.33896 -8.86738 0.365017 -0.437194 -20.5071
268 90 1 6.11158 0.90869 -6.74793 6.95939 13.8064 12.8117
270 90 2 7.11428 0.651217 -6.61513 -1.02826 -6.30906 -0.293286
285 95 2 1.31128 2.26666 -8.82374 -0.226503 -5.41556 11.7029
183 61 2 0.487372 2.0291 -6.55175 -1.14801 -0.65324 -12.2316
181 61 1 0.384964 3.03437 -6.71461 -0.860622 -10.9491 23.6309
502 168 1 2.62214 4.39101 -7.31468 4.40533 5.60748 -8.60118
644 215 2 3.70365 0.583543 -5.91469 5.2491 -0.0488395 -7.9097
645 215 2 3.91477 1.62669 -7.25549 9.40855 -10.9612 4.66631
643 215 1 3.37032 1.39793 -6.42728 -23.6701 16.6843 8.04929
485 162 2 4.21434 5.58722 -4.89765 1.20705 1.01866 -6.14289
269 90 2 6.10054 1.5783 -7.51578 -0.258622 3.54751 -12.6861
484 162 1 4.68508 6.29795 -5.47616 -14.0963 -7.44953 23.5919
486 162 2 4.88407 7.05944 -4.80788 10.34 1.8608 -2.79539
503 168 2 3.36057 3.84543 -6.87826 -2.72198 1.64423 1.87367
504 168 2 1.71875 3.90025 -7.23826 -3.88397 -1.88163 6.75145
455 152 2 6.65197 3.43301 -4.39037 2.23117 1.72705 -4.42681
209 70 2 0.97788 7.04916 -8.16744 1.93424 -6.67927 -9.51733
11 4 2 3.1748 7.09689 -5.74174 -0.730095 6.09459 -12.53
549 183 2 5.08486 6.03602 -6.92624 -5.76675 3.78587 -10.0762
480 160 2 4.59504 2.59043 -8.86989 -11.745 13.4019 4.97165
210 70 2 2.30376 6.00205 -8.32177 1.47635 -9.99955 4.8892
208 70 1 1.83312 6.82263 -8.716 -9.99652 7.98027 7.45335
442 148 1 0.710491 7.00398 -3.91046 -1.63932 -8.27116 1.35156
443 148 2 0.249747 6.63417 -4.7586 1.81308 3.86205 8.6868
305 102 2 2.19297 5.81915 -3.7217 2.19175 -16.3601 5.82804
304 102 1 2.83511 5.00215 -3.6164 0.444806 5.09777 -10.7576
445 149 1 4.80749 3.04373 -4.26936 -10.5069 -1.88749 6.49077
446 149 2 4.11935 2.34902 -4.54263 8.23989 -11.7395 -11.9315
447 149 2 4.15595 3.75349 -3.93707 5.45615 16.3155 7.26348
277 93 1 -5.76551 -3.86157 -0.684769 5.12008 6.83453 -11.3974
279 93 2 -5.70601 -3.28362 -1.54492 -8.42035 -0.0959899 3.15423
615 205 2 -7.00813 -6.71802 0.994635 -0.792902 -1.10777 5.06263
278 93 2 -4.90424 -3.46709 -0.274463 -2.69128 -13.1315 15.9725
557 186 2 -2.67023 -3.72371 0.065523 7.63707 3.93791 -4.21174
578 193 2 -4.31867 -6.96716 0.675435 -1.21426 -12.576 -10.6413
350 117 2 -0.417525 -4.44156 -1.15896 -0.806174 11.5604 -13.4425
558 186 2 -3.18474 -2.21479 0.751159 4.20189 -12.3175 -3.65371
556 186 1 -3.37846 -3.20987 0.586923 -8.71919 6.70977 4.22619
579 193 2 -3.75508 -5.71072 1.35683 6.67693 19.4891 4.86221
525 175 2 -6.75683 -6.84091 -1.13507 -5.38984 -5.8006 1.02601
524 175 2 -6.22036 -5.36715 -1.54905 2.00802 -6.54855 -6.77625
523 175 1 -6.39996 -6.31553 -1.93651 7.27795 15.1302 8.22406
315 105 2 -5.86195 -0.160453 2.51264 -9.70881 -2.14114 0.0238876
339 113 2 -6.00873 -1.25895 -2.55269 -0.22863 -4.73117 1.61718
349 117 1 -1.26858 -4.95209 -0.94287 9.26508 -7.19073 24.333
419 140 2 -3.96178 -6.853 -2.20067 -4.90505 5.12498 5.93246
577 193 1 -4.59893 -6.25343 1.34039 0.315256 -10.505 -1.35129
347 116 2 -5.95459 -6.10088 2.12858 6.44263 6.62192 8.42891
351 117 2 -1.01471 -5.3697 -0.0365702 -13.3613 -1.96778 -10.661
420 140 2 -2.71082 -5.78531 -2.42482 2.28897 2.91242 3.25177
338 113 2 -4.59197 -1.90921 -3.11879 -6.76598 -0.515064 13.1482
337 113 1 -5.20724 -1.84625 -2.27381 2.12777 12.2437 -19.2126
418 140 1 -3.39006 -6.38184 -2.89473 -6.39914 5.31492 -5.47715
20 7 2 -0.935017 -2.8577 -3.16704 1.07896 2.04672 0.549706
346 116 1 -6.71801 -5.93422 2.81799 -7.28478 -8.80579 9.69631
366 122 2 -2.03537 -1.22109 3.22859 5.75751 -2.62831 -6.06118
537 179 2 -0.0132329 -5.96552 1.98369 -10.1767 9.01522 17.2581
364 122 1 -2.48481 -0.307621 3.22613 -1.86012 -5.76871 2.8546
535 179 1 -0.584216 -5.28276 2.52898 13.0629 3.16414 -24.2529
303 101 2 -0.26495 -3.57796 2.85689 -4.21537 5.84849 0.680106
369 123 2 3.55929 -4.83027 -2.42275 -7.57024 2.57818 5.81446
216 72 2 2.52501 -6.0136 -0.603524 11.0647 6.98645 21.7952
214 72 1 2.50168 -5.62485 -1.53161 -23.5345 -21.7065 -5.82291
215 72 2 1.88211 -6.32626 -1.9458 5.70488 10.4959 -10.882
367 123 1 4.31902 -4.48788 -3.0297 4.44073 -1.40861 -5.25563
563 188 2 5.64836 -1.58261 -3.11978 3.48359 -2.70046 -5.0509
562 188 1 4.68854 -1.93065 -3.0118 2.4654 2.80949 -4.10547
564 188 2 4.61951 -2.9825 -3.13843 2.02092 13.206 2.58492
238 80 1 0.407163 -2.60995 -1.58146 15.7716 6.53961 -15.6101
425 142 2 4.38035 -1.93491 -1.48651 3.72525 -6.49599 -0.557023
424 142 1 4.23713 -2.18183 -0.488594 -10.8456 5.07577 17.2783
426 142 2 5.09246 -2.66607 -0.138054 -2.72656 1.03567 2.10808
550 184 1 6.33194 -3.35073 0.673902 9.96298 -5.51482 5.66162
551 184 2 7.22219 -3.47205 0.19586 8.12653 -0.115333 -13.8479
552 184 2 6.59197 -3.58782 1.6438 -15.5196 6.63405 3.45329
194 65 2 3.27627 -1.0238 0.62756 -7.43266 0.893115 5.15384
608 203 2 2.11719 -6.25833 2.52275 -8.54721 16.1209 -12.5097
607 203 1 2.04387 -6.0768 1.50657 2.94606 -3.27612 23.3006
609 203 2 2.7114 -6.80315 1.21804 -0.571326 -2.03102 -19.7485
193 65 1 2.6272 -0.406812 1.15776 14.6168 10.1976 -5.99478
373 125 1 1.76596 -3.15943 0.512125 -2.37032 -19.9467 12.9306
374 125 2 1.66195 -4.04983 1.04 8.39158 11.7226 -8.38386
375 125 2 2.71138 -3.0748 0.112123 4.3825 -0.488989 3.22633
252 84 2 4.89089 -2.02119 2.99701 2.89169 -3.43233 -0.359776
506 169 2 1.15178 -0.0905962 0.477081 -0.716529 -6.76874 -2.70721
195 65 2 2.23308 -0.883249 1.96196 -1.87428 -12.3895 4.65881
505 169 1 0.220777 -0.108789 0.0200774 -3.328 8.58606 -4.26635
507 169 2 0.0535509 -1.00535 -0.438512 1.43994 -5.10114 1.86812
613 205 1 6.90686 -7.18491 0.370254 3.95633 2.80682 -3.46312
240 80 2 0.916397 -2.82402 -0.696651 -5.10212 -2.49297 6.28309
239 80 2 1.19522 -2.45418 -2.23054 -15.037 -2.47577 -0.737199
614 205 2 6.11999 -6.55083 0.265316 -6.71994 -1.34886 -2.46199
152 51 2 -6.19952 3.10439 -2.11507 -1.59025 -0.862697 2.36795
151 51 1 -5.98361 2.79297 -1.15923 -5.37399 0.979487 -8.69204
153 51 2 -6.8006 2.30213 -0.786359 6.06495 -3.18052 -1.64907
313 105 1 -6.12886 0.68672 1.97523 5.87224 4.80644 0.903727
309 103 2 -1.16078 6.42321 -2.68313 7.7141 4.79664 -1.5604
307 103 1 -1.98029 5.90655 -2.98007 -2.15608 -24.0083 5.21487
308 103 2 -2.80205 6.36465 -2.57019 6.15239 2.94612 -5.70391
110 37 2 -3.83116 3.76231 0.946998 -9.76659 -6.39512 -16.6005
111 37 2 -4.99729 3.68506 -0.354342 10.4329 -2.39708 7.11679
157 53 1 -3.06475 6.60571 -0.35321 -2.96007 -2.65211 -4.5899
158 53 2 -2.11085 6.34817 -0.0396711 -3.14328 7.73423 2.63144
96 32 2 -4.3842 1.79672 -1.88762 -10.5921 -10.7652 13.0362
314 105 2 -5.23538 1.12604 1.71001 -6.90533 1.23413 0.84484
109 37 1 -4.33891 4.28415 0.200941 0.621338 7.64174 10.7964
94 32 1 -3.53592 1.27848 -1.64863 24.7372 1.23882 -10.169
95 32 2 -3.56636 0.362213 -1.19117 -16.1936 8.94384 -3.05476
409 137 1 -7.03325 5.00165 1.66541 -19.4547 14.5998 -8.96646
410 137 2 -6.17699 4.63453 1.29046 16.7064 -5.47035 -5.86392
568 190 1 -0.348794 2.14346 1.53956 -10.3687 -4.21173 -11.5464
590 197 2 -1.71221 4.00013 -2.03774 -2.18752 -7.269 3.69046
589 197 1 -1.51825 3.12614 -1.53088 14.1463 11.2937 -3.96574
159 53 2 -3.59274 5.72319 -0.464441 0.205935 -1.32162 9.1038
591 197 2 -2.29737 2.46078 -1.60706 -6.04683 -4.22794 0.60197
570 190 2 -0.617474 2.75345 0.756055 -5.05924 0.13545 4.73108
36 12 2 -1.20662 5.86154 1.78797 1.01994 -3.44451 7.284
34 12 1 -0.700427 6.31928 1.02526 -3.09247 5.9093 -20.9524
400 134 1 -3.50237 2.28526 1.97746 -0.477211 -0.0117046 2.86943
401 134 2 -2.70094 1.68043 2.1859 -3.22547 -0.940061 -3.46053
569 190 2 -0.424217 1.20133 1.11736 4.84954 -0.748773 3.86198
402 134 2 -3.80963 2.68853 2.85895 -0.791143 0.858706 7.07468
291 97 2 -3.27732 5.94146 2.53366 2.88386 -12.3614 8.75682
289 97 1 -2.49876 5.42327 2.9676 -3.53793 -2.61364 7.11043
602 201 2 5.50216 6.8472 -2.78798 -5.19154 4.566 1.07304
321 107 2 0.549295 0.421265 -2.02926 -2.58455 1.39284 3.2064
319 107 1 0.774589 1.1251 -2.73117 3.27048 0.103183 3.10623
320 107 2 0.218673 1.95476 -2.50902 -1.9945 -2.14186 -1.28871
605 202 2 5.75266 2.20438 -3.02578 -8.65072 9.95069 1.48811
257 86 2 3.22458 0.894195 2.44736 2.52723 23.9571 5.1223
256 86 1 3.53636 1.84918 2.7491 6.8793 -22.3914 -13.3115
275 92 2 5.78777 6.06218 2.79716 0.617021 10.4301 -0.581044
411 137 2 7.14726 5.62464 0.911755 5.7961 -10.2885 20.6905
134 45 2 6.8319 1.16512 1.24831 10.3876 0.180026 -5.7523
135 45 2 5.22155 1.28557 0.995846 -12.5783 -5.29692 -0.903865
133 45 1 6.10758 1.6778 0.730002 9.18887 8.04979 -6.53337
467 156 2 2.54145 3.20495 -0.628478 -0.178149 5.9992 4.27729
466 156 1 3.14543 2.90495 -1.39649 -2.82368 3.70555 8.92874
35 12 2 0.313713 6.1572 1.0898 -4.74391 -0.269098 11.2367
606 202 2 6.04598 2.04311 -1.32182 -9.70967 -2.27197 -8.08364
604 202 1 6.19147 1.67442 -2.26738 8.92644 -9.58541 3.85637
260 87 2 6.78451 0.393102 -3.1718 2.11514 -2.37151 2.38581
258 86 2 4.57119 1.78601 2.81095 -11.7876 0.846928 13.1813
306 102 2 2.39319 4.17639 -3.19494 -1.81565 12.0363 3.63608
468 156 2 2.88454 1.94527 -1.57668 0.453809 -7.4366 -6.56292
176 59 2 6.82843 1.1219 3.05342 9.54097 -7.13903 0.707997
263 88 2 2.61957 3.01293 1.89478 -12.3295 -0.451237 -6.75017
512 171 2 4.15855 5.70136 0.370726 2.02676 6.77762 -14.8412
511 171 1 3.62265 6.52073 0.671913 11.4404 -13.9844 21.7492
386 129 2 6.18547 3.65022 -0.00279378 -8.97401 11.7744 1.37224
385 129 1 5.52996 4.35229 -0.380465 -6.47458 -16.5347 4.49192
387 129 2 4.64421 3.86975 -0.590309 4.98737 3.79932 -6.08039
262 88 1 1.84597 3.45968 1.34946 16.9077 -2.93445 6.49023
264 88 2 0.951767 2.95939 1.54406 7.07742 -3.17236 -5.04365
513 171 2 3.59189 6.34829 1.68523 -5.75513 3.99287 -7.01678
116 39 2 1.36734 4.79288 2.33856 9.30739 6.84569 5.91623
115 39 1 1.42614 5.78879 2.618 4.16473 6.40443 -1.64075
360 120 2 -4.60361 -1.03042 3.62677 3.82188 7.68831 -2.2833
359 120 2 -5.39965 -2.3669 3.98343 -13.5906 2.47261 -2.99768
358 120 1 -5.52651 -1.44421 3.53741 16.0497 -8.14949 6.65492
325 109 1 -6.76568 -1.83641 7.61307 6.93139 7.85277 -8.42938
326 109 2 -7.08244 -2.79123 7.36741 3.2445 -5.65892 -1.97825
327 109 2 -5.78723 -1.68164 7.36101 -0.665096 -5.15568 -2.37444
348 116 2 -6.49156 -6.53194 3.65184 2.28687 7.31186 -12.8931
92 31 2 -1.74281 -3.57058 6.14105 5.35503 -4.06616 -10.9534
520 174 1 -4.96552 -5.36371 7.06976 6.48075 14.4848 -3.42255
521 174 2 -4.95993 -5.05238 6.08796 -3.04516 -2.81101 -1.64864
166 56 1 -5.00493 -4.00558 4.68591 6.70708 -4.99082 -5.21823
91 31 1 -2.2341 -3.23095 5.30374 -18.1906 3.0164 0.80142
168 56 2 -4.00041 -4.05563 4.9108 -0.774554 6.99327 -7.68565
93 31 2 -1.69523 -3.14147 4.4297 12.1809 -0.537477 10.9149
522 174 2 -5.79035 -4.87073 7.41491 -7.40848 -6.95014 4.9166
167 56 2 -5.24135 -4.44714 3.78425 0.935419 2.15036 8.2369
534 178 2 -3.00925 -2.10381 7.01672 2.27263 0.450722 5.66983
301 101 1 -0.274693 -2.61704 3.24765 -12.3683 -20.8997 -5.78044
560 187 2 -2.0252 -5.87758 7.51713 -6.07946 12.8239 -0.99591
559 187 1 -2.32308 -4.9018 7.68636 -3.58475 -8.6415 2.60078
561 187 2 -3.35208 -4.8196 7.55589 12.0217 -5.41201 -0.584175
536 179 2 -1.10975 -5.70111 3.28291 -0.117891 -14.3744 8.19168
3 1 2 -7.03436 -0.816382 8.68431 -8.15561 6.81731 18.4353
459 153 2 -7.02801 -5.14411 9.16247 -10.6772 -17.1073 -12.3956
457 153 1 -6.80756 -6.02221 9.63653 10.047 36.5021 16.3261
17 6 2 -4.01212 -6.75798 7.13941 0.400236 -1.24356 -10.2961
532 178 1 -3.04718 -1.80501 7.99775 0.990734 -4.22254 -3.59166
533 178 2 -2.16975 -2.01259 8.47794 -4.8447 -0.673407 -3.96398
432 144 2 -0.646645 -0.125338 8.75658 -1.02813 1.50724 -0.256819
30 10 2 -0.363433 -3.17919 9.55096 4.27725 -5.13054 1.99648
146 49 2 -3.09767 -5.96708 9.66612 -7.61752 -3.15629 18.3672
544 182 1 3.69292 -5.87508 4.02085 21.1347 -18.3069 -45.1882
276 92 2 4.95887 -7.08859 3.38261 1.62777 -4.10298 -0.0765446
546 182 2 3.05384 -6.6247 4.31683 -6.38329 17.6147 20.2184
62 21 2 6.63167 -4.73385 3.26309 10.5071 8.00777 -11.1345
61 21 1 6.24136 -3.78352 3.37837 -1.43144 -21.0282 7.93706
63 21 2 5.77742 -3.89189 4.27179 -4.40269 12.0668 4.0102
302 101 2 0.700227 -2.41486 3.52597 -2.5671 12.6632 5.58058
125 42 2 6.58007 -1.0416 6.54559 1.3479 -5.82762 -15.2431
545 182 2 3.88739 -5.02173 4.55551 -18.602 1.43234 20.0153
250 84 1 4.39698 -1.55496 3.7605 19.1205 -2.58029 7.87184
251 84 2 5.09594 -1.47221 4.54819 -15.337 6.98563 -12.2185
398 133 2 2.92156 -1.4705 3.98873 -11.4475 -5.95124 -2.46786
397 133 1 1.89995 -1.53981 4.24686 20.0567 14.0344 2.29047
399 133 2 1.85781 -0.940789 5.08369 -5.13675 -7.54639 1.24686
124 42 1 5.76214 -0.863827 5.93563 13.5651 1.04454 17.2614
355 119 1 1.79347 -2.88936 8.38115 7.84227 -17.0534 -3.95743
357 119 2 1.94173 -3.84816 7.99759 -12.5842 13.3495 -1.46369
242 81 2 2.93408 -7.19426 8.13701 3.39964 -5.20624 -7.49859
243 81 2 4.58835 -7.18061 8.60065 -4.87832 3.8597 -10.4243
332 111 2 6.03762 -3.99283 7.67064 14.033 -7.9945 -9.24758
333 111 2 6.68452 -5.23211 6.87052 2.30435 -14.5227 -4.36662
331 111 1 6.94018 -4.31124 7.20024 -4.46829 8.41635 13.202
204 68 2 4.58504 -3.12438 9.04594 -0.299151 -13.7971 -12.2971
266 89 2 2.79012 -4.0815 6.19325 -1.87599 4.65758 -5.76517
267 89 2 3.40907 -2.85391 5.11473 -10.2114 4.05787 -0.621318
265 89 1 3.5463 -3.7565 5.56467 16.3028 -0.959857 6.89493
213 71 2 1.68705 -5.45698 5.8368 0.656351 -2.08627 -10.1132
211 71 1 1.63031 -5.17669 6.81027 -0.292941 4.66697 3.19928
356 119 2 2.23155 -2.95606 9.32275 -6.29713 10.7832 2.09263
203 68 2 4.22662 -3.22179 7.41744 -0.52335 -6.91129 -1.51476
202 68 1 4.702 -3.69766 8.18999 -7.65358 26.7572 22.2886
126 42 2 5.10285 -0.554015 6.66245 -5.58554 3.03272 -3.37664
1 1 1 7.10771 -0.170516 9.40552 1.68152 2.62993 -19.2105
101 34 2 3.55347 -0.166366 7.77405 -3.79347 -1.80243 0.769644
461 154 2 1.83192 -1.38124 7.42249 5.77815 -5.89107 1.16352
212 71 2 1.20777 -6.05888 7.2106 3.54359 14.7368 7.726
574 192 1 0.732639 -7.27842 7.86626 -19.8217 -14.3111 27.5844
460 154 1 2.04761 -0.550697 6.84645 -10.0186 2.80036 1.13561
462 154 2 1.15599 -0.0366129 6.82571 3.95306 -0.640577 5.21231
595 199 1 1.61275 -7.26882 5.05282 1.32849 -6.35721 -16.9982
249 83 2 -6.96587 3.97398 3.37172 -0.107659 -2.30919 7.17106
253 85 1 -0.232741 2.83216 4.31211 23.1166 2.42756 -6.05227
365 122 2 -2.17376 0.156405 4.07855 -3.4583 8.27299 3.30444
429 143 2 -5.94726 6.16593 4.82965 -5.38452 -10.3526 5.85502
428 143 2 -4.58188 7.11371 4.91001 0.0593083 -1.56397 6.39419
427 143 1 -5.55832 7.0719 4.62523 5.07395 8.30671 -6.24255
247 83 1 -7.14407 3.48002 4.26221 -13.9478 2.53067 -16.2415
510 170 2 -2.8246 2.87463 5.32361 -14.9791 -6.33047 3.64885
254 85 2 -0.863854 2.1596 4.73317 -9.96912 -4.78328 2.08883
16 6 1 -3.33522 7.06248 6.90348 1.25497 3.36914 7.01795
509 170 2 -4.46815 3.39821 5.59617 8.28145 -10.1297 -0.502743
417 139 2 -5.62143 1.83965 7.14287 -4.26896 7.68078 -10.4306
508 170 1 -3.63517 3.42877 5.00012 0.967821 23.9909 -16.1259
431 144 2 -0.227054 1.31581 8.02559 6.39417 3.58375 1.94668
430 144 1 -0.466925 0.329431 7.86186 -4.11191 4.34397 -4.39238
290 97 2 -2.757 4.74997 3.72587 -3.81679 10.7273 -16.0447
416 139 2 -4.62468 0.753304 7.62063 7.28595 -8.82283 3.32925
415 139 1 -4.95243 1.15974 6.75016 4.19744 -3.04665 13.4494
5 2 2 -5.81462 5.92213 9.3466 -2.22111 2.33592 0.891929
4 2 1 -5.15343 5.75814 8.58353 7.15014 -18.1092 -5.99551
354 118 2 -1.58706 1.0367 6.38004 15.8543 -3.07183 9.70226
352 118 1 -2.23381 1.24887 5.63116 -7.43602 -18.8582 9.23905
18 6 2 -3.6123 6.34025 7.57635 -3.20538 -2.38823 -2.07634
383 128 2 -6.52362 3.03593 8.9588 2.00918 -4.10629 8.74291
353 118 2 -3.1111 0.840718 6.01349 0.641513 13.9503 -13.9646