ITEM: TIMESTEP
17000
ITEM: NUMBER OF ATOMS
648
ITEM: BOX BOUNDS pp pp pp
-7.3628871845445909e+00 7.3628871845445909e+00
-7.3628871845445909e+00 7.3628871845445909e+00
-1.6361971521210762e+01 1.6361971521210762e+01
ITEM: ATOMS id mol type x y z fx fy fz
142 48 1 -4.60707 -1.85198 -10.173 -8.44809 1.73345 0.274184
31 11 1 -1.96773 -1.93144 -10.5288 1.63579 -6.19093 8.88885
33 11 2 -1.69005 -1.33374 -11.3343 -1.29336 -1.37682 1.1118
144 48 2 -5.34924 -1.57846 -10.8358 1.30818 -6.28659 6.60023
32 11 2 -2.98672 -2.01925 -10.3755 -0.834911 5.48416 -6.08429
280 94 1 -5.03945 -0.173648 -16.3147 -23.557 -4.05564 -3.0653
308 103 2 -1.58165 -3.10158 -11.9279 5.65495 -6.53971 2.46908
309 103 2 -2.62347 -4.13384 -12.5684 6.78301 -1.90137 -4.20373
307 103 1 -1.61376 -4.00807 -12.4178 -8.03088 9.56074 0.289894
236 79 2 -0.610739 -5.05546 -10.443 -8.23936 1.73851 9.78002
492 164 2 -6.69346 -1.19088 -13.832 0.515231 2.36034 7.93792
490 164 1 -5.949 -0.508134 -13.6514 -12.2982 -16.8238 -11.6585
491 164 2 -5.62459 -0.373108 -14.6135 11.1256 10.9547 -3.13261
27 9 2 -3.99069 -3.45763 -14.5855 14.4505 -6.17802 4.43136
139 47 1 -4.43177 -3.42931 -12.8827 -15.5013 -38.5378 15.4793
140 47 2 -4.94525 -4.05541 -12.1918 14.1291 19.5769 -15.5201
540 180 2 -4.25628 -7.12483 -15.0528 2.29482 -0.37519 -13.0778
119 40 2 -6.65868 -5.62766 -11.5381 -0.991679 2.4784 1.59424
25 9 1 -3.34797 -3.70465 -15.3529 -10.6673 -2.95205 -9.90865
424 142 1 -6.64045 -5.19744 -14.2378 12.6013 -3.09166 -3.80854
426 142 2 -6.45594 -6.21755 -14.3025 -5.39873 10.3793 -3.60487
425 142 2 -5.70926 -4.80666 -14.0793 -5.13451 0.732704 2.52113
171 57 2 -7.2135 -3.66081 -14.695 -11.05 14.3505 -1.60721
205 69 1 -7.26282 -2.24046 -11.2338 -18.8166 -8.92951 16.6678
13 5 1 -0.920342 -0.887067 -12.6338 3.19103 -1.4349 -5.31262
15 5 2 -1.62641 -0.295856 -13.0767 10.2915 6.41219 -2.23845
141 47 2 -4.90991 -2.54787 -12.9409 -6.5042 17.8113 2.68652
543 181 2 -1.92976 -1.02675 -15.7462 -4.71441 8.13112 -3.28579
555 185 2 -0.342574 -2.59861 -15.2156 -2.75917 -3.11665 -1.44295
553 185 1 -0.463329 -1.77965 -15.8023 -7.44629 -7.98211 12.3057
118 40 1 -6.06601 -4.84393 -11.1838 -7.04939 9.83642 -2.52929
120 40 2 -6.67552 -4.00754 -11.0676 9.64193 -11.3793 -3.06321
26 9 2 -3.17371 -4.71418 -15.4281 1.92753 6.30511 4.74557
160 54 1 -2.74232 -6.92614 -15.4537 35.5452 -8.72856 -21.4057
282 94 2 -4.05866 -0.493355 -16.1826 1.53892 11.1854 -3.82134
541 181 1 -2.48094 -0.202273 -16.0828 9.56244 -18.6235 18.785
361 121 1 1.07091 -4.07909 -13.1715 -6.03967 9.87808 -15.4464
362 121 2 0.0387864 -3.98639 -13.0711 6.55055 -7.98162 9.25694
456 152 2 2.9645 -0.104434 -12.6773 1.37928 5.64643 -0.816446
363 121 2 1.37556 -3.3713 -13.8422 1.42889 -6.6448 7.71367
454 152 1 2.62548 -1.0426 -12.4827 -3.86292 -2.90825 -6.35843
503 168 2 6.34145 -6.32635 -12.6992 1.88087 -2.39991 10.3
145 49 1 2.70875 -5.88435 -11.9296 -0.952267 14.1036 -12.8413
146 49 2 3.63492 -5.91191 -12.3597 3.98492 -0.544302 1.84635
147 49 2 2.17782 -5.15076 -12.4447 -3.39269 -6.35201 9.34908
170 57 2 6.95953 -2.48993 -15.8147 -0.246488 -1.56807 13.715
169 57 1 7.07907 -2.71027 -14.8103 6.6722 -10.3285 -6.35421
206 69 2 6.84754 -2.01069 -12.0111 1.62502 -0.370875 -1.52348
207 69 2 6.85824 -2.573 -10.4471 12.9238 6.125 -11.9393
189 63 2 1.89237 -6.17634 -14.611 -4.21875 -1.48039 -0.00947723
455 152 2 2.75186 -1.60427 -13.3292 2.47552 1.75748 -0.182115
192 64 2 4.65076 -2.49367 -14.7695 -0.185736 -5.99086 -7.023
502 168 1 6.91795 -6.76203 -11.9465 -8.70149 -5.79687 -4.05017
190 64 1 3.89037 -1.83351 -14.9028 -1.99683 -10.5468 8.80179
20 7 2 3.14477 -2.1058 -11.3434 -11.4076 10.6727 -7.18484
386 129 2 2.0032 -6.9554 -10.9543 6.88254 2.24354 1.31439
191 64 2 4.23536 -0.965378 -14.5296 2.44336 21.5306 3.48051
14 5 2 0.0626034 -0.599659 -12.7338 -11.4243 4.42567 -0.293592
273 91 2 4.52866 -6.05234 -14.229 0.333099 2.66259 -5.56623
554 185 2 0.370523 -1.51766 -16.2834 18.1944 2.15353 -9.25177
271 91 1 5.14295 -5.58959 -13.555 -5.55987 -0.973205 4.96572
272 91 2 5.74678 -4.88564 -13.9799 0.438287 -2.67961 -4.76751
21 7 2 2.70345 -3.4463 -10.451 -22.5134 -8.57928 1.5961
19 7 1 3.46215 -2.8637 -10.7357 26.9879 -0.127979 5.6894
636 212 2 4.76993 -3.4718 -10.1567 -4.10079 -11.5993 2.86112
187 63 1 2.69924 -6.66913 -14.9779 16.5445 17.9942 -3.30979
494 165 2 4.01824 -6.36966 -16.262 -7.4359 -5.77773 -1.54156
12 4 2 -6.67161 1.09658 -12.3232 2.85705 -13.5912 0.767866
10 4 1 -7.18843 1.08572 -11.4455 -12.3917 1.50453 14.1648
539 180 2 -5.10332 6.66022 -14.1702 -3.11346 -18.6974 8.50495
538 180 1 -5.23253 7.25815 -14.976 -8.29891 10.2817 3.0557
11 4 2 -7.35535 0.182397 -10.9821 9.17014 9.04785 -13.084
322 108 1 -3.68402 0.986525 -11.1819 -3.86959 6.7277 28.7461
488 163 2 -4.06263 1.88788 -13.9607 -1.02118 -4.36221 -5.82573
619 207 1 -1.07445 4.17958 -9.81897 4.00491 -11.8576 -11.7217
489 163 2 -2.86038 0.827905 -14.5486 -7.589 4.07202 -3.57038
487 163 1 -3.19316 1.39226 -13.7493 7.41738 1.16669 -5.3566
64 22 1 -4.17278 5.2278 -13.2381 -12.9659 -14.2875 26.2031
66 22 2 -4.14839 5.2737 -12.2101 0.950869 5.28776 -6.44104
323 108 2 -4.0257 0.0649334 -10.9108 4.22725 -2.14977 -13.7087
65 22 2 -4.9041 4.51228 -13.4051 6.68395 8.4413 -13.8775
324 108 2 -3.45389 1.1797 -12.1665 -0.640848 -10.6736 -6.75661
59 20 2 -5.81427 4.07778 -15.5153 0.804676 5.55916 -17.6408
58 20 1 -6.06247 3.56181 -14.6815 7.01082 -11.8907 31.0818
199 67 1 -4.76839 5.31155 -10.0791 -22.615 3.8236 8.83497
483 161 2 -2.30194 4.49743 -13.0566 17.1661 -17.8532 -6.79441
98 33 2 -6.59887 5.15937 -10.7346 18.5858 2.30226 4.24157
60 20 2 -6.90609 2.98432 -14.7086 -1.61695 5.49271 -9.07362
209 70 2 -2.68455 6.4556 -10.5086 -0.161776 -0.478618 0.82293
470 157 2 -4.39461 1.97402 -9.98318 -2.99843 11.1677 -5.16765
161 54 2 -1.81069 7.35684 -15.2628 -25.8167 12.343 -0.614241
482 161 2 -2.22634 2.93231 -13.548 3.11276 -9.23534 2.58555
481 161 1 -1.6394 3.71236 -13.2496 -16.5649 25.3769 0.539156
584 195 2 -0.618294 4.82517 -15.6072 11.5423 15.0323 4.42143
174 58 2 -6.55172 6.93213 -16.1939 -7.03488 2.55636 4.54684
583 195 1 -0.10925 5.71786 -15.4839 -17.5812 -13.1044 -10.0983
83 28 2 4.60887 1.22818 -12.8704 -0.152396 6.33679 16.4913
188 63 2 2.94122 7.29398 -14.3244 -8.98871 -13.5668 -0.777043
450 150 2 0.311022 6.19454 -11.2618 8.99656 -2.03571 2.60519
448 150 1 0.481686 5.59707 -12.0752 -6.4395 9.27955 -13.1243
449 150 2 0.0120266 4.70692 -11.9398 -3.49759 -4.61719 3.57973
422 141 2 2.07021 5.92665 -12.7719 -1.08124 -2.42905 -6.86667
294 98 2 0.417021 2.83399 -11.0394 -1.571 1.77881 -18.1628
423 141 2 3.34751 5.00262 -13.2941 -5.3758 12.7363 -4.55279
292 98 1 0.893259 2.73442 -11.9527 8.94362 -9.69987 16.4507
421 141 1 2.83783 5.87992 -13.47 8.56761 -12.8848 14.8898
293 98 2 0.371621 3.06057 -12.7618 -11.3774 1.63999 3.29242
84 28 2 5.09132 1.42472 -14.4132 -10.2824 0.143171 7.09885
82 28 1 4.424 0.898989 -13.8047 8.08606 -7.90313 -21.8399
504 168 2 6.52937 7.02513 -11.7646 11.6095 6.79556 -0.296573
97 33 1 7.16564 5.21735 -11.0209 -30.1471 -3.63748 0.98103
226 76 1 5.73715 3.90716 -12.8056 -10.0845 -4.09003 8.84546
228 76 2 5.18872 3.27636 -12.2195 -3.0643 -3.34208 -3.7692
227 76 2 6.36883 4.3535 -12.1216 7.93066 9.27384 -4.3225
53 18 2 5.90714 3.50425 -14.4462 -4.10335 -15.1597 9.03313
52 18 1 5.88161 2.75287 -15.1713 5.07053 23.3165 -30.0567
54 18 2 5.81268 3.30206 -16.0578 0.940108 -8.88375 16.7816
99 33 2 6.5204 5.31645 -10.1955 18.7694 5.55727 -8.37193
585 195 2 0.0874848 5.87144 -14.505 6.0038 -1.23179 11.3988
385 129 1 1.77287 7.09697 -10.2006 0.699114 -6.48729 22.3342
476 159 2 3.92227 3.00503 -10.3854 -3.48764 -3.71356 -1.49701
477 159 2 3.09697 1.66602 -10.8492 7.10834 5.882 -3.84444
475 159 1 4.00925 2.13646 -10.9392 -5.37956 1.47923 5.2854
258 86 2 2.90652 1.10149 -15.6652 1.99694 -0.929237 13.4124
143 48 2 -5.06119 -2.53475 -9.51895 1.50053 12.6321 -8.02976
270 90 2 -5.24423 -6.6397 -8.31044 7.15108 2.85595 -10.0151
268 90 1 -5.94419 -6.02386 -8.73988 -10.0921 0.982596 5.10317
87 29 2 -0.498829 -1.95036 -9.7572 -0.508682 -5.15591 1.2669
86 29 2 -0.2191 -2.84466 -8.40296 3.26169 5.89905 -2.1968
269 90 2 -5.76588 -5.7315 -9.72242 2.61346 -4.92834 7.16668
549 183 2 -4.03081 -1.56342 -6.61571 9.79505 -9.78467 -4.34321
179 60 2 -0.879541 -4.37806 -6.6624 -8.30731 0.497489 -5.55919
235 79 1 -1.08614 -5.37089 -9.58359 5.78072 -26.9602 -17.5275
237 79 2 -1.30732 -6.38351 -9.73328 1.04912 23.2192 7.91037
178 60 1 -1.41375 -3.83708 -7.36422 4.12129 10.3604 7.97802
180 60 2 -1.2876 -4.22008 -8.31517 -4.08958 -13.4623 0.512926
548 183 2 -2.98338 -2.90618 -6.46632 1.54482 3.21728 -9.67069
547 183 1 -3.949 -2.56477 -6.34443 -5.13254 -1.96703 13.4376
50 17 2 -5.52235 -2.72401 -4.94618 0.509567 0.0787374 -6.05252
259 87 1 -0.388986 -5.37417 -5.23974 16.471 8.99049 -8.01671
301 101 1 -1.01621 -0.111363 -3.56467 10.1824 24.7084 -21.1564
302 101 2 -1.20666 -0.210396 -4.56929 -4.3583 -7.28261 3.34622
133 45 1 -5.93415 -3.14498 -8.272 -13.592 0.277393 -16.8341
134 45 2 -5.07503 -3.04677 -7.73567 5.47676 -11.2856 13.6099
135 45 2 -6.21478 -4.10391 -8.54174 9.23805 3.20217 12.3339
261 87 2 -0.871924 -4.9884 -4.42249 0.111522 1.42594 -3.57624
285 95 2 -3.87072 -0.872444 -8.69302 14.1972 -5.05119 -4.72465
283 95 1 -3.8921 -0.326764 -7.83136 -13.2991 -2.31721 -4.88967
639 213 2 -0.608568 -6.81565 -6.09387 9.80249 -2.24529 0.827989
638 213 2 -0.375549 -7.25774 -7.66715 1.59201 -8.15224 7.34642
122 41 2 -6.3924 -0.338662 -7.33736 2.21901 -0.466473 -3.07543
51 17 2 -5.97731 -1.52886 -3.91356 -2.60455 8.59214 8.48248
49 17 1 -6.01204 -2.54502 -4.07085 -1.98908 -6.60252 -7.2682
351 117 2 -3.54676 -3.70764 -4.89236 18.0745 -19.0104 7.99992
349 117 1 -3.0171 -4.42573 -4.3389 -20.5479 28.293 -11.5496
350 117 2 -3.31254 -5.34883 -4.64493 3.16872 -11.7591 -1.61733
558 186 2 -7.34022 -3.38903 -3.49101 -13.322 -7.62901 12.8607
507 169 2 3.6036 -1.98919 -8.13741 -10.7418 3.43258 6.65285
505 169 1 3.99284 -1.11406 -7.79979 13.3534 25.1011 7.43823
506 169 2 3.49369 -0.545815 -7.05724 -0.836044 -23.2487 -19.9645
80 27 2 0.727968 -0.65216 -8.58285 -0.0510111 17.1116 -5.78955
85 29 1 0.247633 -2.25548 -9.10525 1.23741 0.289975 9.73105
9 3 2 6.30407 -4.92722 -4.20073 -1.52024 4.38506 5.84246
260 87 2 0.549992 -4.90601 -5.39808 -20.1594 -6.6301 9.91065
635 212 2 5.3253 -5.0271 -9.62326 -4.33759 -3.5204 -6.78697
634 212 1 5.49707 -4.03221 -9.65272 16.5154 15.4287 6.88482
104 35 2 6.24146 -6.34808 -6.603 6.88115 0.178464 -15.1761
105 35 2 7.18946 -6.5676 -8.05631 -2.7572 11.9456 11.2034
245 82 2 5.07137 -3.81369 -7.60538 11.1517 -0.0561311 -9.73208
8 3 2 6.27483 -6.53321 -4.4613 -3.15501 -21.5874 14.3398
7 3 1 6.21574 -5.64305 -4.92859 1.42201 15.7282 -20.3122
37 13 1 1.89883 -4.03981 -5.37089 2.11676 -3.74198 3.10475
39 13 2 1.95665 -4.19446 -4.348 7.23557 2.32191 -8.44785
38 13 2 2.80654 -3.90433 -5.83573 -1.71636 -1.66561 9.13537
246 82 2 5.40871 -4.49839 -6.08688 -0.833539 0.232656 -3.60062
244 82 1 4.76971 -3.90687 -6.64245 -15.7842 -0.662614 14.0373
336 112 2 3.07915 -5.53121 -7.77781 15.6432 -12.0746 -8.89618
334 112 1 3.40457 -6.36959 -8.29358 -21.4708 -0.213385 5.65834
103 35 1 6.24227 -6.55725 -7.62771 -2.37126 0.741627 1.79562
335 112 2 4.40714 -6.43537 -8.46764 5.10004 6.8766 11.8651
644 215 2 4.96915 -0.254531 -4.61237 0.944446 -13.8432 2.01927
35 12 2 4.49932 -2.33884 -5.59764 1.90237 -21.7951 -23.1697
34 12 1 4.55395 -1.68241 -4.8489 3.31577 11.0901 5.23533
36 12 2 3.82321 -1.8238 -4.17095 -8.05746 -5.74647 16.0277
621 207 2 -1.77269 4.9285 -9.71298 12.6713 3.08071 7.8229
620 207 2 -0.332363 4.16352 -9.10269 -6.65339 -0.361208 2.86201
200 67 2 -5.05069 4.36752 -9.78621 13.2469 -17.7802 -10.8542
201 67 2 -4.99389 5.84216 -9.22981 13.0891 6.71962 -10.5553
364 122 1 -1.36199 0.388852 -6.55702 -10.1698 -1.62347 35.6127
366 122 2 -0.606064 0.622308 -7.21476 -13.7862 -8.59176 -14.8408
208 70 1 -2.22615 6.56801 -9.60598 11.488 11.8051 -18.3927
16 6 1 -5.93131 0.159983 -3.34907 9.12412 5.68579 -7.95846
303 101 2 -0.297523 0.651014 -3.60894 -4.65929 -18.1528 14.4578
469 157 1 -5.04267 2.64774 -9.52147 2.71574 -2.08365 8.55998
471 157 2 -5.87669 2.10895 -9.28649 -1.84959 -3.35008 -0.758753
69 23 2 -4.173 2.86075 -7.54133 1.14935 11.5844 11.6624
365 122 2 -2.27991 0.00740156 -6.86601 19.3502 9.91744 -19.6826
194 65 2 -2.65108 1.52514 -4.81585 -15.1665 17.2286 6.53535
67 23 1 -4.19458 3.42335 -6.66373 3.29588 -14.1693 -18.2533
68 23 2 -3.42413 4.07998 -6.59618 13.9173 6.15781 -5.23206
210 70 2 -2.97061 6.63626 -8.91458 -10.1835 0.575651 15.6552
284 95 2 -4.85433 0.0526871 -7.96676 7.90464 12.0529 10.4776
569 190 2 -3.66977 7.00924 -6.86815 4.90495 1.29794 -2.1726
568 190 1 -4.13086 6.71231 -7.73865 -32.1151 -5.50724 24.6798
570 190 2 -4.99346 6.22844 -7.38524 16.034 5.08819 -4.32226
637 213 1 -0.305062 7.12133 -6.70086 -11.7551 4.389 -6.85833
341 114 2 -5.40577 4.40362 -6.45902 -0.453358 -10.6326 -3.17285
342 114 2 -6.77422 4.50344 -7.43388 -1.92859 -7.16834 1.634
340 114 1 -6.20351 4.98994 -6.75619 -8.36041 27.4726 -4.45819
18 6 2 -6.7271 0.677101 -3.71687 -6.06214 -2.49063 1.69927
62 21 2 -1.46923 5.09631 -3.48146 -6.82598 -2.12979 5.98407
193 65 1 -3.32593 2.26014 -4.51842 25.2921 -31.8818 10.2307
195 65 2 -3.50722 2.863 -5.32457 -10.6276 1.10703 -9.40354
374 125 2 -5.94827 5.07275 -3.59408 9.21802 16.7283 -7.64306
123 41 2 -7.35628 0.73855 -7.94939 -8.96895 10.0308 -13.8055
121 41 1 -6.37387 0.461944 -7.97013 -5.43423 -10.6385 13.322
414 138 2 -0.856784 3.994 -6.03262 -6.84656 12.4192 1.65305
412 138 1 -1.48656 4.72266 -5.66063 3.67983 -9.69192 -1.70719
413 138 2 -1.19639 5.65291 -5.98804 5.51149 -1.06878 -5.14231
17 6 2 -5.1333 0.802121 -3.28345 -3.92418 -6.62331 1.44738
500 167 2 -2.50969 6.76128 -4.25518 -2.85864 1.89589 -1.75396
501 167 2 -4.14737 6.69333 -4.29526 17.7339 8.24028 -9.57404
499 167 1 -3.3158 7.20195 -4.70725 -18.6899 -8.08246 8.52353
373 125 1 -5.06224 5.57864 -3.44435 -21.5801 -19.3409 7.19645
164 55 2 2.66048 5.08187 -9.38768 15.6372 0.322124 1.6377
81 27 2 1.53713 0.448214 -7.61031 -5.70709 -1.23406 -13.6192
79 27 1 0.85366 0.372923 -8.40178 3.94737 -13.5994 15.7073
165 55 2 4.40785 4.83822 -9.16465 -1.37456 20.9627 -0.918941
387 129 2 2.38184 7.27257 -9.38317 -6.24589 8.37778 -12.7292
229 77 1 2.4818 0.501251 -6.31503 0.646242 3.02164 13.4411
230 77 2 2.82681 1.43508 -6.03411 -4.93653 0.414704 -5.81416
231 77 2 1.79423 0.316112 -5.58426 -0.440038 -5.35673 1.80937
523 175 1 5.78057 6.7685 -3.28905 -8.60276 18.169 37.6535
524 175 2 5.17313 6.20313 -3.88547 -5.72075 -6.96392 -13.9893
163 55 1 3.4706 4.4588 -9.23684 -11.7 -22.4271 -7.92048
128 43 2 0.684725 2.32216 -8.36182 -0.524123 -1.36668 -1.44843
465 155 2 5.0383 0.329837 -8.26063 -12.4475 -20.2892 2.90004
464 155 2 5.32127 1.20167 -9.65878 1.83861 -1.58416 6.43333
599 200 2 5.26147 2.02384 -5.96223 7.1235 15.0789 -16.273
445 149 1 4.21976 5.52249 -5.05136 32.8816 -10.5881 23.1612
446 149 2 3.53604 5.93272 -5.72017 -4.96807 -9.71353 -7.59826
643 215 1 5.3399 0.651841 -4.28996 13.8898 34.0102 -8.83764
129 43 2 1.33027 3.18788 -7.10419 -0.794392 4.08494 -4.6851
624 208 2 5.9738 6.82021 -8.51293 1.02983 4.78974 17.3082
127 43 1 0.711335 3.25169 -7.93054 -0.330305 -3.84514 7.72982
463 155 1 5.66213 0.991017 -8.70765 7.75687 16.8682 -13.3718
600 200 2 5.30517 2.38786 -7.63025 4.03804 -10.2119 -0.16992
598 200 1 5.35544 2.77538 -6.6841 -9.39118 -0.575193 25.9987
622 208 1 5.95717 5.83037 -8.78593 -7.17323 -18.3246 -29.6794
623 208 2 5.86873 5.17588 -8.02893 -1.05152 -1.00201 22.2214
480 160 2 1.97566 3.63127 -4.93726 11.8044 2.58304 0.704276
647 216 2 2.86787 5.2517 -3.29335 7.12422 12.5478 1.47177
478 160 1 2.35994 3.11492 -5.73682 -9.77069 -8.6482 -4.04046
90 30 2 2.63933 6.99822 -7.2187 1.92599 7.96201 -6.97886
479 160 2 3.19984 3.51689 -6.1467 3.81423 10.8767 4.38369
89 30 2 1.36076 6.40371 -6.32768 -2.49213 2.61116 -6.36718
88 30 1 2.35472 6.28097 -6.55821 -9.35405 1.54739 -2.59162
447 149 2 4.86011 4.78754 -5.38914 -14.1098 8.31345 -5.9227
645 215 2 4.62991 1.14439 -3.73099 0.629527 -0.176878 8.70368
117 39 2 -5.12726 -3.19278 -2.75286 -11.5041 11.4275 0.186113
115 39 1 -4.25425 -3.32147 -2.24218 15.0514 -11.2182 -5.29102
544 182 1 -4.33001 -7.11546 -1.14025 -0.761785 -8.50317 12.8004
116 39 2 -3.64868 -3.63792 -3.0281 3.85802 -2.76192 15.9255
337 113 1 -3.52264 -5.7952 1.28035 2.507 -6.04905 6.8938
339 113 2 -4.19593 -5.16348 1.72363 -1.26405 -6.19313 -12.0676
461 154 2 -5.47665 -2.94404 0.543793 2.85148 0.777537 -14.3605
338 113 2 -3.87799 -6.38293 0.506908 -8.54398 11.2273 -1.56729
606 202 2 -2.4557 -3.14677 -1.09821 -2.60012 5.48336 3.23802
604 202 1 -1.93305 -2.76502 -0.301096 -2.19036 -8.77598 -3.73116
605 202 2 -2.28232 -3.25386 0.525406 2.85145 4.20593 -0.83067
320 107 2 -3.61522 -7.25927 2.39234 10.9762 -7.09824 1.0742
593 198 2 -1.98572 -0.350437 -0.42109 -8.00908 10.7971 -16.7493
232 78 1 -3.87765 -1.2646 3.02185 3.72312 -10.3891 3.6563
460 154 1 -5.0457 -2.04834 0.290735 1.88219 21.3301 3.70848
462 154 2 -4.71378 -1.90047 -0.679258 -6.62313 -18.1194 11.657
233 78 2 -4.08169 -1.09183 2.03259 -0.986561 0.808619 4.90024
91 31 1 -6.29761 -4.68766 -0.353507 -7.10872 4.68345 1.88013
93 31 2 -5.53065 -4.56927 -1.0148 4.97123 -0.260701 1.54925
92 31 2 -7.11505 -5 -0.878208 0.664723 -0.0918017 1.52189
279 93 2 -7.02938 -4.27823 1.50787 13.1346 1.82105 -8.39448
277 93 1 -6.96405 -3.89962 2.45273 -17.7241 -9.11037 -3.66362
603 201 2 -0.414651 -1.41516 -2.66422 -7.19957 14.7506 -8.78909
602 201 2 -0.5425 -2.45416 -1.33405 -4.13373 6.01108 -3.02413
546 182 2 -3.93694 -6.92512 -2.05197 -2.09182 -2.93134 -7.16208
561 187 2 -6.65312 -0.326401 0.231824 -5.61667 4.68837 -0.280887
314 105 2 -0.116012 -6.60455 -0.551017 18.3862 0.156208 9.60553
613 205 1 4.92441 -1.18789 2.03706 12.8861 -0.788258 -17.1793
557 186 2 6.07247 -2.72886 -2.91475 -11.8567 -6.26815 4.22917
398 133 2 0.896073 -2.38615 0.488212 7.40104 -3.25691 14.4483
397 133 1 1.39733 -2.66623 1.34908 -18.0612 2.3681 -12.7054
399 133 2 0.700939 -2.9207 2.06423 14.3735 2.08596 -6.29363
94 32 1 3.78467 -2.55977 -2.1682 5.26669 -27.7461 -2.65815
300 100 2 1.30996 -4.94404 -1.78574 1.43977 7.11694 5.11585
96 32 2 3.25494 -3.35735 -2.58265 -1.98169 19.5132 6.21834
299 100 2 1.23983 -3.353 -2.5223 7.02112 -27.3586 19.3484
95 32 2 3.98614 -3.02702 -1.27424 -0.569395 14.9667 4.88033
298 100 1 1.79737 -4.24712 -2.37539 -16.8991 14.7973 -28.2084
614 205 2 5.89831 -1.02405 1.77748 0.204255 4.84083 13.8976
556 186 1 6.50925 -3.65494 -2.96971 21.9226 14.1004 -16.9145
253 85 1 5.14967 -5.49105 -1.28291 9.88439 5.09388 -1.97965
255 85 2 5.50108 -4.71224 -1.86252 1.40842 -8.33774 -2.17995
311 104 2 1.68378 -0.352084 0.205615 -9.87226 8.93975 -8.12326
381 127 2 3.8564 -4.68053 0.976288 -11.0898 15.5063 4.561
601 201 1 0.0347443 -2.15486 -2.13497 13.3145 -24.2221 9.61399
254 85 2 4.50733 -5.07527 -0.600312 -2.49841 1.19996 -2.57084
278 93 2 6.9085 -4.27762 2.88465 6.71646 -3.95402 3.84325
379 127 1 3.71713 -3.84813 0.368474 9.4421 -8.52099 -1.78542
44 15 2 6.83929 -7.18135 -0.37469 2.93832 1.14418 5.311
380 127 2 2.87239 -3.3322 0.672327 -1.6446 -6.02413 6.32314
497 166 2 3.00986 -4.99985 3.17009 0.774999 -4.89511 0.453174
615 205 2 4.54799 -1.45017 1.13527 -14.2334 -6.12615 0.330901
315 105 2 1.49285 -6.57948 0.0411289 -4.76885 1.06649 -3.91581
313 105 1 0.757335 -6.0415 -0.434045 2.56515 7.41154 -8.08021
6 2 2 2.87543 -6.98991 1.68644 8.31682 0.774958 7.14934
329 110 2 3.74369 -0.513853 3.14185 -0.654112 7.93555 11.1165
496 166 1 3.6466 -5.58993 2.59278 22.1635 0.757891 -1.22355
498 166 2 4.59934 -5.62964 3.03112 -22.6487 1.30838 -4.11057
618 206 2 -0.899068 2.94658 -0.886973 -8.95027 -9.25688 -2.98312
545 182 2 -5.07474 6.88947 -1.1787 5.58238 13.6007 0.870934
319 107 1 -3.2662 6.71928 3.02 -16.3173 18.2953 -0.532774
592 198 1 -2.31708 0.354276 -1.1146 10.1333 -40.8652 11.911
594 198 2 -1.89778 0.112827 -2.02255 -1.38539 3.21821 -3.53166
43 15 1 -7.28009 6.85215 -0.804604 -14.8644 -1.63663 -27.7988
61 21 1 -2.05209 5.40503 -2.69059 12.8228 9.75239 -8.57893
63 21 2 -2.76526 4.67754 -2.49902 5.94461 -0.787771 2.5204
609 203 2 -2.69882 3.92541 2.90267 7.21344 -11.8433 -10.8783
607 203 1 -3.45548 4.10398 2.2342 3.30687 18.3978 28.1652
608 203 2 -3.68443 5.03972 2.63328 2.48727 -4.54251 -12.1979
348 116 2 -7.2105 4.76335 0.68828 -9.23664 7.07168 14.0591
567 189 2 -4.63144 4.511 1.24496 7.63785 -2.23889 5.59389
565 189 1 -5.47252 4.45229 0.6594 -15.4348 0.263849 -13.1179
566 189 2 -5.25331 3.76281 -0.0466486 1.52812 -1.84723 -6.36261
101 34 2 -6.89931 2.51031 2.56033 -11.4036 -5.80665 1.40777
100 34 1 -5.95319 2.1635 2.55821 1.78928 26.0071 -2.39795
102 34 2 -5.43813 3.06446 2.59059 7.16063 -22.8264 -0.0426815
369 123 2 -3.59091 2.97841 -3.15892 6.29423 -10.3388 7.58967
367 123 1 -3.67716 3.37706 -2.19516 -10.3338 11.7342 6.56266
368 123 2 -3.10394 2.8919 -1.47991 -2.64362 -0.894393 -5.62867
375 125 2 -4.63613 4.98841 -2.72352 9.78267 2.5258 -0.9712
563 188 2 -1.16889 6.36658 -1.25468 10.2666 -2.74982 15.4597
564 188 2 -1.98075 7.23003 -0.251848 9.6591 -0.790186 13.1346
562 188 1 -1.03068 6.836 -0.329876 -40.5928 -5.30326 -35.4525
560 187 2 -6.61465 1.09408 1.03898 4.49617 3.11632 8.3236
559 187 1 -7.21191 0.506859 0.459636 5.15737 -6.84061 -1.53163
153 51 2 -2.31967 1.52796 -0.120676 1.72064 2.68165 -12.7023
590 197 2 -0.0920312 0.652922 1.90728 -14.1657 3.04765 12.654
589 197 1 -0.578558 0.730493 2.82947 30.3347 -11.0629 -18.1725
151 51 1 -2.28824 2.5392 0.114579 -11.795 15.6031 23.023
152 51 2 -2.79774 2.65995 1.00824 9.6971 9.0283 -10.067
411 137 2 -0.0835188 6.08797 0.674203 5.53383 -22.8619 10.8034
410 137 2 -0.202743 4.97913 1.96538 1.67467 -12.2928 5.03742
167 56 2 -0.410393 7.15807 2.56033 7.45518 -0.604977 3.3965
513 171 2 -0.285927 2.78611 2.99339 -1.19104 -1.2451 6.32403
511 171 1 -0.676636 3.7182 3.14654 -10.3868 11.1675 12.5523
305 102 2 0.714566 1.96631 -2.64164 4.93704 11.5676 12.6474
304 102 1 1.29663 1.38704 -3.25604 -10.1036 -12.9547 -17.6996
648 216 2 2.05922 4.41647 -2.02501 10.4731 3.85326 -4.1077
646 216 1 2.57144 4.36293 -2.92193 -21.9299 -23.7874 -2.21913
525 175 2 5.14229 7.05803 -2.50452 18.7455 -5.43736 -20.2616
616 206 1 0.033991 2.89395 -1.31028 -16.4077 0.58184 0.0590905
312 104 2 0.554553 0.606996 -0.724724 10.3108 -5.05273 8.02046
306 102 2 2.31418 1.50421 -3.06596 -10.4305 -1.40667 4.20148
310 104 1 0.74212 0.0524261 0.122844 -3.61817 0.00152106 5.65541
45 15 2 7.05393 6.68116 -1.75081 9.85125 2.8173 11.4678
346 116 1 6.53201 4.6623 1.03225 10.334 -15.9036 -13.9335
1 1 1 5.47995 2.25176 -0.337444 32.9506 -2.9102 1.5872
3 1 2 5.88161 2.4099 -1.26075 -11.6091 0.304874 -2.05666
617 206 2 0.540986 3.37557 -0.565279 24.0367 -1.69006 -3.25121
2 1 2 6.21601 1.67009 0.122034 -18.131 -0.406742 -2.48078
249 83 2 5.29072 5.76002 -0.729059 -11.5778 -2.11035 -0.469483
435 145 2 3.14558 2.81875 -2.80534 17.2715 1.83173 10.8744
433 145 1 3.73013 1.97331 -2.58289 -7.53147 1.75053 -11.4435
434 145 2 3.85963 1.86199 -1.57351 2.42381 6.29818 3.76947
248 83 2 3.81886 6.30508 -0.1816 -2.04554 -6.23556 -8.57623
247 83 1 4.29049 5.80399 -0.961974 14.8449 13.0132 18.9724
24 8 2 3.24942 4.04124 -0.138407 -10.9095 -5.93954 0.0299519
22 8 1 2.22742 3.90317 -0.121803 17.6987 9.11023 -7.45452
23 8 2 1.86197 4.7209 0.371234 -8.35935 -2.61438 9.3571
5 2 2 1.77883 6.47934 1.45458 16.1405 -4.31062 -4.33847
4 2 1 2.65611 6.92149 1.10121 -12.2735 5.77165 -6.02901
409 137 1 0.452971 5.44006 1.32265 -11.78 34.0322 -14.416
347 116 2 6.10238 3.99638 0.374322 -5.3205 3.17533 11.5425
429 143 2 6.28627 4.80534 3.04101 -3.11505 8.43275 1.27518
216 72 2 4.65545 3.48298 2.44329 -8.53515 11.4551 7.65998
330 110 2 3.50947 1.07041 2.97694 -6.30202 -1.13607 14.3986
215 72 2 3.02544 3.71577 3.09115 10.3287 9.65413 -0.613721
214 72 1 3.67065 3.22206 2.47689 -1.62192 -22.9394 -3.55343
234 78 2 -3.47613 -0.460279 3.52264 -2.76808 2.32398 -7.73405
485 162 2 -7.34044 -2.62528 3.44499 4.88033 2.3784 -3.48067
110 37 2 -6.95113 -0.839834 5.31361 4.18023 13.6796 -4.6653
150 50 2 -3.40419 -3.10328 3.72224 11.5622 -7.87865 12.0727
148 50 1 -3.03788 -3.89511 4.29854 -27.0706 23.923 -19.3114
149 50 2 -3.8406 -4.50272 4.48009 8.52928 1.8827 4.8573
276 92 2 -1.4243 -4.56841 4.55948 -17.2424 4.46752 -4.11969
275 92 2 -0.597024 -6.03598 4.44036 -12.1382 -5.55605 -1.85156
442 148 1 -3.24977 -2.8584 9.7743 -3.00555 15.7814 6.9098
443 148 2 -3.49273 -1.84413 9.67636 0.158725 -15.0186 -3.36291
212 71 2 -4.30386 -6.83753 5.9373 -7.14442 29.3531 17.7734
274 92 1 -0.954455 -5.30528 5.08147 33.8365 0.250443 17.6511
588 196 2 -7.22033 -7.21506 7.89359 -8.33815 -3.35853 23.1227
444 148 2 -3.04519 -3.16695 8.82271 2.37884 3.08817 -6.41637
587 196 2 -6.49314 -7.00511 6.56471 5.09937 3.4038 -14.6107
402 134 2 -4.11023 -0.406913 8.025 -4.42962 6.34675 -25.0839
288 96 2 -2.4823 -2.83658 6.14995 -1.91099 -2.42616 -1.81436
286 96 1 -2.47939 -2.21073 6.95869 2.20676 -13.1403 4.24949
326 109 2 -6.03385 -4.7807 6.55674 3.84231 -6.55881 0.0620363
325 109 1 -5.13742 -5.18942 6.89666 -2.13905 -5.58587 -14.1422
327 109 2 -5.10063 -4.79879 7.84445 -1.72429 1.13319 5.84381
107 36 2 -1.08091 -5.45026 9.34179 2.4054 2.02165 0.368982
345 115 2 -6.60716 -3.24963 9.00522 -14.608 12.1669 -6.73729
359 120 2 -0.626405 -5.49453 6.66137 -7.69391 -1.6451 2.18261
358 120 1 -0.439491 -5.77189 7.64892 15.028 -5.30746 0.969619
176 59 2 -0.662865 -2.60985 7.273 9.43157 5.93415 -10.7179
400 134 1 -4.2281 -0.41004 9.02533 30.0433 -11.6542 38.4532
287 96 2 -2.7974 -1.30232 6.63506 -5.64252 9.58014 -2.33184
131 44 2 -1.7029 -7.3137 7.57338 5.19098 3.39706 -3.08147
344 115 2 -5.03657 -3.2871 9.5375 -4.41854 -8.39847 -4.6658
343 115 1 -5.78613 -3.84738 9.10176 34.0527 -13.1298 16.1941
239 80 2 6.85222 -5.20043 4.61146 1.45891 -2.54262 14.0342
486 162 2 5.87215 -2.38123 4.08331 3.18574 11.3289 -0.607561
484 162 1 6.85937 -2.10138 4.16266 -7.56255 -9.07269 14.197
295 99 1 0.589558 -0.776846 4.77794 -10.2181 12.0575 -5.17316
240 80 2 5.52768 -6.19091 4.71378 0.408944 3.26492 1.81546
586 196 1 7.31847 -7.25289 6.90886 -1.42379 -1.55942 -3.66154
536 179 2 7.19088 -3.50405 5.45528 2.53485 -13.3543 17.2865
238 80 1 6.07465 -5.58854 4.08218 -11.543 -4.18748 -15.6664
535 179 1 7.20038 -4.24873 6.19032 9.00096 31.2432 -30.391
296 99 2 1.49609 -0.455519 4.44053 13.5026 -9.94597 5.12079
297 99 2 0.577647 -1.48555 5.54199 4.55901 3.0345 -4.18729
360 120 2 0.603758 -5.79085 7.69326 -8.45185 4.66409 6.34784
440 147 2 1.06664 -4.6534 4.69255 -3.84377 -0.22122 -0.745835
439 147 1 1.87106 -4.32292 4.16524 -1.48102 3.5824 9.21016
441 147 2 2.25742 -3.52781 4.68828 6.16127 1.26304 -5.00309
30 10 2 4.25627 -2.64898 6.10255 -4.74315 -4.54042 -1.65452
28 10 1 3.67656 -2.21584 5.37041 6.39815 -27.993 2.80206
29 10 2 3.59978 -1.2508 5.63015 -1.56616 21.3671 5.0445
537 179 2 6.5564 -3.90319 6.90276 -9.35044 -6.75398 5.86852
177 59 2 0.952679 -2.34497 7.6301 11.1408 -2.53779 11.1003
175 59 1 0.285016 -2.42575 6.89026 -14.5121 -4.03333 -3.03885
416 139 2 2.67604 -5.49218 8.92902 15.4187 -8.23834 4.52996
415 139 1 2.32226 -5.59256 7.97926 -10.8045 2.27879 -32.4937
417 139 2 3.05697 -5.72761 7.25308 -7.62821 0.632498 20.5042
112 38 1 3.34431 -2.301 9.63808 -29.7246 -22.1312 -5.75708
376 126 1 6.99487 -2.21141 8.87413 -14.3887 12.0326 5.50015
407 136 2 5.28029 -6.91466 6.6532 11.7984 -3.06973 4.82816
406 136 1 4.41708 -7.02029 6.12906 -12.1806 -3.49048 -4.65034
353 118 2 1.5488 -0.296507 9.06403 12.5077 -0.20352 -15.5448
378 126 2 6.77346 -1.26473 8.51968 -0.839644 -0.673326 -3.75528
357 119 2 5.69439 -3.09385 8.27148 -2.73751 3.47642 -3.69599
356 119 2 4.1008 -3.59981 8.29377 22.5803 8.8651 -17.3086
355 119 1 4.94717 -3.49673 7.68022 -17.6857 -6.18965 14.3126
321 107 2 -3.64269 6.95341 3.95869 3.87426 -11.4591 3.38558
331 111 1 -4.10376 3.49512 5.09091 14.1093 -8.02499 -5.70999
332 111 2 -3.17553 3.48585 5.53098 -6.38428 4.90842 3.98561
333 111 2 -4.82463 3.62501 5.78328 -3.11321 3.9288 3.78662
420 140 2 -1.96066 0.995237 3.62549 -6.03372 10.886 5.04402
418 140 1 -2.80896 1.09151 4.23851 1.62203 -2.69628 -8.31773
419 140 2 -3.23635 2.03088 4.31846 6.80979 -1.78655 -11.0848
111 37 2 -6.47677 0.633301 4.63674 -0.836131 -5.02323 1.07486
591 197 2 -0.0373309 0.0777109 3.44257 -16.599 8.09041 0.126434
211 71 1 -3.97889 6.99493 5.6486 10.8196 -26.9967 -14.3714
130 44 1 -1.84572 6.40204 7.48163 -4.27016 7.4988 -2.16462
166 56 1 -0.667295 7.36244 3.52503 17.3602 1.08029 -24.9105
213 71 2 -3.26518 6.60465 6.28348 -4.21652 6.06242 -0.607558
572 191 2 -4.94217 0.128235 5.9966 -0.0516347 -1.72279 2.41323
401 134 2 -5.03041 0.194487 9.33725 -1.82175 -5.59172 -17.5567
550 184 1 -6.24301 0.901995 9.64678 -15.732 31.7397 38.1938
168 56 2 -1.6677 7.19321 3.45658 -17.8012 -6.64758 9.59134
576 192 2 -1.32368 5.39105 6.25918 0.82044 6.40383 -7.84148
370 124 1 -2.55459 2.39451 7.2868 3.93641 -9.29575 1.13781
372 124 2 -3.18923 1.60431 7.07235 5.6513 2.68479 -0.744336
371 124 2 -1.59223 2.13335 7.01133 -3.18666 -1.31603 -0.177766
575 192 2 -0.67823 3.99317 6.51232 7.67397 -14.3366 -1.52826
574 192 1 -0.892817 4.6075 5.74149 -6.16017 0.915147 5.68843
512 171 2 -0.674834 4.04046 4.14855 3.87163 -7.3563 -14.3561
573 191 2 -3.42262 0.577797 5.46229 -5.40188 -8.32915 5.29559
571 191 1 -3.94823 0.203799 6.2998 2.57297 -0.529908 9.00571
626 209 2 -2.78706 3.34908 8.66491 -1.65597 8.58515 -4.8237
250 84 1 -5.60377 4.58078 9.03765 7.72372 1.61068 25.7187
625 209 1 -2.90446 4.17094 9.28879 0.641908 0.306349 0.684581
627 209 2 -3.89756 4.46212 9.3225 3.34142 -4.23363 -8.94478
252 84 2 -6.11784 4.05361 8.35412 -8.72019 -2.94116 -8.32925