ITEM: TIMESTEP
45000
ITEM: NUMBER OF ATOMS
648
ITEM: BOX BOUNDS pp pp pp
-7.1928382818744119e+00 7.1928382818744119e+00
-7.1928382818744119e+00 7.1928382818744119e+00
-1.5984085070832464e+01 1.5984085070832464e+01
ITEM: ATOMS id mol type x y z fx fy fz
561 187 2 -1.19469 -3.05209 -14.7946 9.95292 32.9581 14.7839
331 111 1 -5.51333 -1.87802 -11.7288 18.6368 21.2535 15.0195
333 111 2 -4.72257 -1.75407 -11.0608 -5.47872 -0.86252 -13.72
559 187 1 -1.45075 -3.90923 -15.2051 3.62105 -41.6744 -16.4173
560 187 2 -0.601553 -4.33474 -15.616 -13.7598 2.77669 1.11431
200 67 2 -3.38915 -6.59013 -14.1501 -19.1862 -7.02452 -15.4669
357 119 2 -0.922876 -0.9258 -14.6188 11.8857 -0.232545 5.42904
355 119 1 -1.79243 -0.381699 -14.7245 -11.3036 -4.41603 -16.4746
356 119 2 -2.17256 -0.784198 -15.6093 -3.7622 8.19273 5.47363
199 67 1 -2.41901 -6.28587 -14.0454 24.1183 35.7649 6.87797
332 111 2 -5.87391 -2.78297 -11.4977 -11.7023 -22.9832 -0.750508
201 67 2 -2.2854 -5.31466 -14.4371 -3.00114 -23.541 4.9509
284 95 2 -6.13058 -5.76674 -10.3899 -4.11454 3.94429 -3.45
283 95 1 -5.94371 -4.75906 -10.4716 8.98275 9.35515 4.98876
285 95 2 -4.99324 -4.815 -10.8836 -5.07426 6.92685 -0.936866
414 138 2 -4.31044 -6.37756 -11.4108 4.037 14.5939 -6.20911
412 138 1 -3.67452 -5.56302 -11.5995 -6.55077 -17.1715 18.7434
422 141 2 -5.59428 -6.70655 -14.4485 26.0833 -4.99899 -8.94592
413 138 2 -3.0009 -5.89322 -12.2833 6.89639 -0.0836339 -14.9496
309 103 2 -0.909116 -6.4987 -10.9841 13.9847 -0.818375 -13.0801
173 58 2 -7.06391 -6.05635 -13.4379 -13.8106 2.43322 12.571
174 58 2 -7.06302 -4.62939 -14.4036 -5.80091 -4.87275 3.70725
172 58 1 -6.64979 -5.56036 -14.2171 5.22214 2.81511 -12.9408
29 10 2 -6.19821 -1.29306 -13.5502 -3.48725 -13.9039 -10.8156
198 66 2 -6.1685 -0.521969 -10.686 -4.94607 -1.05711 -8.05652
28 10 1 -6.87013 -1.28951 -14.3417 3.76502 44.7591 37.5841
176 59 2 -1.04558 -7.15355 -14.1664 -20.4358 14.2248 4.21696
196 66 1 -6.39632 -0.0221661 -9.82103 9.09056 -44.8049 22.6343
274 92 1 -3.62399 -1.19571 -9.76811 -42.1231 5.2611 -22.8868
275 92 2 -4.3196 -0.427696 -9.91826 20.0143 -13.9224 9.0233
637 213 1 -1.86433 -3.6257 -10.8483 7.44253 -21.6009 4.71509
639 213 2 -2.35256 -2.7466 -10.774 -12.4437 7.59942 2.02578
638 213 2 -2.49775 -4.45325 -10.7707 1.45044 20.6855 -6.63627
308 103 2 -0.777049 -4.9526 -11.5254 -1.90131 11.9062 -0.305979
307 103 1 -0.240045 -5.80272 -11.3674 -9.66042 -14.183 12.278
215 72 2 -5.74077 -0.850219 -15.8373 -6.21947 -4.48315 -1.64676
383 128 2 0.656617 -2.38959 -11.3636 -5.75783 3.65674 -6.32945
146 49 2 1.24022 -5.42866 -10.8526 -14.7195 1.43449 -15.3605
145 49 1 2.10395 -5.00201 -10.4895 -1.7655 -8.59569 37.5452
45 15 2 5.46298 -4.21032 -9.78828 1.70739 -2.44657 -11.7262
583 195 1 0.453443 -1.73384 -14.5533 12.5437 -18.7377 -15.7363
130 44 1 6.02501 -6.6831 -11.8813 -15.1113 -32.5312 -5.53247
369 123 2 2.48456 -5.46574 -12.0656 0.0981222 13.0909 21.837
368 123 2 3.37788 -5.17338 -13.5249 -3.71466 7.40849 13.0279
367 123 1 2.6943 -5.73089 -13.0064 1.36514 -20.4477 -45.9699
585 195 2 1.08057 -2.30799 -15.1856 -12.765 22.4246 20.1786
523 175 1 2.43865 -3.31688 -15.4944 -8.90151 -2.35315 -5.59689
336 112 2 5.61771 -3.13738 -15.8499 13.7784 -2.78473 8.58461
115 39 1 4.20687 -3.2245 -13.4668 3.7173 0.778984 27.539
117 39 2 3.5318 -2.7253 -14.0303 -11.6429 0.709589 -11.145
116 39 2 5.11464 -3.22825 -13.9343 9.50016 -2.69504 -12.0409
334 112 1 6.27611 -3.40896 -15.0832 -19.6055 -8.50384 -17.4835
584 195 2 0.896259 -1.78049 -13.6156 -4.44425 -3.07204 0.750751
81 27 2 3.6046 -4.60328 -10.9274 -12.4174 3.60194 -4.50135
80 27 2 4.76948 -3.82198 -11.952 -16.8752 5.79948 -16.7813
79 27 1 4.58239 -4.33606 -11.0915 27.21 -8.09309 25.86
524 175 2 1.75198 -4.09534 -15.5714 20.7651 -0.492421 -10.2928
132 44 2 5.69886 -5.91412 -11.2869 -7.55545 1.24932 -6.3384
384 128 2 2.15918 -2.69745 -11.7291 6.16781 -1.39682 -7.78131
382 128 1 1.34792 -2.20021 -12.0912 3.76361 -1.03193 17.7264
335 112 2 6.82123 -2.56889 -14.8139 7.53225 9.11469 -1.36546
177 59 2 0.472484 -6.63832 -13.7489 1.23425 -4.53883 1.56837
617 206 2 2.54752 -0.374336 -12.4891 -0.740397 -15.6655 -3.05566
30 10 2 7.00418 -0.404473 -14.112 4.26002 -15.9451 -14.8923
423 141 2 -5.07644 6.19222 -14.9567 -4.96175 -3.46399 -5.29605
421 141 1 -4.73102 7.0948 -14.6478 -23.0677 4.62063 14.2726
268 90 1 -5.7228 7.09934 -11.1858 -11.0003 0.912133 -14.3013
269 90 2 -6.71823 7.07661 -11.494 9.90034 3.62691 -1.7245
446 149 2 -1.08584 3.15884 -14.7733 -16.734 4.14386 7.2682
391 131 1 -1.47805 1.08813 -12.2365 -4.38732 -5.95035 38.7065
392 131 2 -1.56168 0.524049 -11.3587 -0.337563 11.0699 -25.1055
197 66 2 -6.5952 0.922298 -9.98146 -7.20766 39.5324 -11.8472
447 149 2 -2.27758 4.17592 -15.2272 -1.00905 0.10534 3.85309
430 144 1 -1.6361 6.14369 -11.0698 9.37614 18.7923 13.564
15 5 2 -3.84873 5.39797 -12.6727 -1.24229 18.9639 -23.0887
13 5 1 -3.47336 4.5557 -12.2935 -0.0549185 -35.971 23.8082
393 131 2 -1.32357 0.526165 -13.0599 -3.89155 -12.2951 -14.7162
431 144 2 -2.01883 5.70257 -11.8974 -4.41437 -7.11613 -1.66146
520 174 1 -6.74912 4.98711 -15.165 14.5367 -15.342 15.8993
432 144 2 -2.29338 5.9906 -10.2831 -0.327318 -6.36003 0.78423
482 161 2 -0.00527581 3.61686 -11.4978 2.8841 0.638872 5.89568
481 161 1 -0.293656 2.89779 -10.8158 -5.41081 0.61343 -13.2579
483 161 2 -0.870872 2.21059 -11.3682 10.1913 9.12435 8.28804
445 149 1 -2.00241 3.54659 -14.466 22.6456 1.38595 -11.9368
519 173 2 -3.25162 0.746716 -14.8412 -25.0043 21.8005 -5.09997
270 90 2 -5.62827 6.40404 -10.4576 -0.694798 -17.1172 13.647
557 186 2 -3.85788 2.63634 -10.1878 7.88882 -7.89067 8.4401
14 5 2 -2.74603 4.00779 -12.795 -10.5724 13.5985 -11.0113
517 173 1 -3.8257 1.63312 -14.8904 31.5036 -29.1841 8.35475
518 173 2 -3.13441 2.26263 -14.448 -8.52811 6.86893 -4.07156
385 129 1 -6.24977 3.74636 -12.5972 8.84245 -1.80132 16.898
387 129 2 -5.24348 3.94097 -12.4123 -13.0685 -3.39429 -7.14392
386 129 2 -6.7487 3.86528 -11.7012 -1.39418 0.291356 -10.6064
175 59 1 -0.0657663 6.9679 -14.1368 22.4835 -12.1481 -4.43491
480 160 2 -0.165138 5.97759 -10.0256 0.820394 6.24769 -11.2561
633 211 2 -0.246969 6.40123 -15.9433 6.23085 -3.51471 3.6148
521 174 2 -6.95449 4.37263 -14.3379 0.78833 18.1477 -19.5906
2 1 2 -5.30349 4.42942 -15.9087 9.17753 -4.44147 -5.34419
3 1 2 -4.05006 3.27889 -15.8444 -6.60925 -2.53484 -2.18578
131 44 2 5.26332 6.98709 -12.0645 23.2893 28.3782 7.12857
510 170 2 5.90936 2.0168 -14.337 0.321365 -3.08772 -1.44111
616 206 1 2.6101 0.625963 -12.5793 -22.8139 19.0804 21.1283
57 19 2 3.97113 1.16796 -11.7728 10.2931 -0.215097 3.78942
38 13 2 2.47476 3.91304 -10.3823 -3.80365 29.7788 -9.41074
522 174 2 7.01228 4.9079 -15.9639 -9.23036 -1.69777 5.44915
353 118 2 0.134126 1.42582 -15.7824 0.270731 10.865 -7.20935
508 170 1 6.52673 1.48249 -13.6978 -0.262188 -1.85731 0.890372
358 120 1 6.19982 3.52605 -10.2407 24.251 17.2946 19.2262
360 120 2 5.99884 2.60893 -10.6266 -18.9839 -10.9002 -5.52371
9 3 2 2.34625 5.40975 -12.3233 -1.60879 0.183439 -1.73581
479 160 2 1.43132 6.59528 -9.78997 3.699 16.1717 -4.54123
478 160 1 0.790502 5.8359 -9.68625 -2.84789 -28.7806 16.6203
222 74 2 0.923924 3.85 -13.5887 9.58623 7.4365 5.14584
509 170 2 7.1636 2.14214 -13.2456 5.05442 4.42076 -0.132385
618 206 2 1.97074 1.01463 -11.8533 15.6066 -3.12442 -18.7098
516 172 2 3.62581 5.52938 -13.6788 25.4134 1.42728 -17.6361
514 172 1 4.20001 5.694 -14.5576 -22.1501 -7.73637 10.8514
515 172 2 4.129 6.69761 -14.657 4.45543 4.29072 -4.19229
221 74 2 0.11186 5.29534 -13.2296 26.6145 -8.72322 5.51638
220 74 1 0.8279 4.60998 -12.8795 -27.136 5.24156 -5.05156
7 3 1 3.3184 5.69021 -12.1112 -13.6696 -5.97211 -2.63757
362 121 2 1.83408 3.14661 -15.5807 -3.11771 -1.7355 8.45435
361 121 1 1.58206 2.759 -14.6465 -4.63916 -1.23685 -8.99526
56 19 2 5.47731 1.26782 -12.3864 9.90858 -1.55796 -10.3737
8 3 2 3.48439 5.50349 -11.1288 9.00141 3.36246 11.8179
363 121 2 2.14477 1.94523 -14.3902 2.29447 1.27427 2.56211
348 116 2 3.74784 7.08451 -9.61036 -7.48184 19.5917 5.31479
55 19 1 4.97106 1.27521 -11.5054 -8.10512 2.80112 11.2805
37 13 1 2.35866 2.96752 -10.1215 1.6056 -37.6904 10.8515
39 13 2 1.3962 2.63644 -10.2734 -4.34116 9.16368 -0.554245
170 57 2 4.70283 3.72246 -15.2631 -10.7995 12.0534 0.704987
169 57 1 5.02506 2.79767 -15.5358 0.808884 -26.1247 -10.1931
380 127 2 -6.07934 -4.8297 -6.26432 -9.20181 -3.16217 8.12727
276 92 2 -2.84545 -0.742937 -9.30857 19.8021 13.3729 10.1283
233 78 2 -0.948967 -0.923076 -5.7819 8.0427 12.2807 -2.39902
232 78 1 -0.0742049 -0.447384 -6.07286 -15.2868 0.69347 16.5984
179 60 2 -3.78273 -0.657748 -6.49424 -1.12863 -6.31978 2.15344
379 127 1 -5.28868 -4.22547 -6.4911 4.99379 31.0724 -19.2332
280 94 1 -0.0439845 -2.12534 -8.27654 15.5736 -0.714203 -13.062
282 94 2 -0.154626 -1.50082 -7.46445 -6.93916 0.46078 1.79094
180 60 2 -5.07527 -0.415314 -7.61148 16.0057 -0.133849 16.3711
293 98 2 -2.4247 -5.50516 -4.58101 3.23602 11.0803 35.6487
381 127 2 -5.60083 -3.32801 -6.95206 1.3771 -26.1569 9.32025
277 93 1 -3.18729 -2.06939 -5.61496 3.93302 -3.63603 -31.209
279 93 2 -3.88818 -2.66291 -6.06929 6.82166 -1.35321 -1.61919
281 94 2 -0.819435 -2.71098 -8.57111 -8.74997 0.181185 7.88748
470 157 2 -4.84419 -5.84713 -7.54517 -2.72733 -7.04732 5.80273
469 157 1 -4.7073 -6.86859 -7.59783 18.6191 15.2272 -6.84149
533 178 2 -6.87299 -0.544433 -3.43771 -54.8711 -9.54779 -13.5298
278 93 2 -3.3488 -2.27057 -4.62171 -3.38119 6.23769 14.5558
351 117 2 -6.31306 -1.36967 -8.53761 -4.8432 -1.79526 -4.77047
349 117 1 -6.45926 -2.06266 -7.79399 6.343 2.28767 3.71844
83 28 2 -0.817945 -0.539177 -9.03451 10.6457 10.5082 8.43128
576 192 2 -3.19521 -6.94395 -6.44054 6.89149 -0.339493 1.23342
575 192 2 -1.50379 -7.11833 -6.14329 -1.03532 1.2282 1.53607
574 192 1 -2.41293 -6.80511 -5.78777 -7.74379 7.90711 0.670848
532 178 1 -5.92869 -0.442202 -3.25709 38.7913 -15.3109 12.2208
292 98 1 -2.51005 -4.94237 -3.67708 -0.940861 -22.6621 -34.5308
294 98 2 -3.30568 -4.33658 -3.84227 -3.0381 6.42868 4.35128
134 45 2 -4.93436 -1.69108 -3.29592 30.4757 -12.2381 -2.32415
133 45 1 -4.11514 -2.37725 -3.26627 -29.3886 15.8935 12.4335
44 15 2 7.09286 -4.22845 -9.31411 17.7213 -0.0185763 -16.549
43 15 1 6.14189 -4.43951 -9.04152 -14.4625 4.50394 30.9721
372 124 2 6.34686 -6.20575 -8.63314 -4.19837 22.6623 1.11545
67 23 1 2.14516 -3.21337 -7.08873 -6.22103 2.65439 -12.483
68 23 2 1.43434 -2.74412 -7.70821 12.7865 -8.58904 14.9411
33 11 2 1.18863 -4.12686 -3.68368 3.18104 13.3247 -1.92399
490 164 1 6.05535 -1.90225 -4.96889 -18.3981 52.2023 17.6928
120 40 2 0.70956 -1.89145 -5.02986 2.67737 0.211053 8.65706
18 6 2 6.04143 -5.28134 -5.79985 6.77889 -1.43473 4.78851
53 18 2 1.39513 -6.68695 -5.74059 1.4064 -6.14734 -1.61984
491 164 2 6.88427 -1.59548 -5.42672 22.9528 -6.52776 -14.1883
147 49 2 1.97764 -5.21913 -9.47717 11.7719 7.35555 -16.6881
69 23 2 2.01257 -2.93802 -6.11432 -0.381964 -0.0259063 -0.335851
32 11 2 0.706235 -5.53315 -4.34293 -5.20006 -6.00491 -9.82818
627 209 2 4.9705 -0.582581 -5.09152 4.19691 -7.41347 -1.03858
350 117 2 6.97008 -2.40018 -7.80714 -5.26044 0.0880727 -2.82858
602 201 2 5.32937 -4.00479 -7.50793 -6.35906 -6.59114 -2.01711
603 201 2 3.82225 -3.98031 -6.78117 -39.0551 19.0591 -3.31148
119 40 2 0.391794 -2.31976 -3.42501 9.12427 3.80008 -15.9433
544 182 1 2.73842 -6.18458 -7.89183 -5.538 -13.8634 -11.7302
118 40 1 1.11288 -2.33563 -4.19037 -22.583 1.23171 7.29308
545 182 2 3.20785 -5.29199 -7.96313 10.699 3.36751 13.1974
16 6 1 6.91632 -5.78728 -5.55625 -16.1691 -1.80625 18.2987
17 6 2 6.82151 -6.16107 -4.56459 3.31431 12.8816 -16.9814
601 201 1 4.76741 -4.25485 -6.681 46.3339 -14.1002 9.83508
370 124 1 6.59532 -6.91542 -7.95781 -1.9845 -34.5411 5.14061
371 124 2 6.44279 -6.62847 -6.96682 9.32839 3.1027 -16.4729
546 182 2 3.07791 -6.83054 -7.13572 -2.89905 14.27 -8.03928
52 18 1 0.598025 -6.2373 -6.18917 -0.133786 18.873 -23.1202
54 18 2 0.949612 -5.7463 -7.05079 -7.45232 -20.2099 29.6635
59 20 2 3.60139 -6.98349 -4.87696 2.21241 -7.69908 5.46824
492 164 2 5.85383 -2.85812 -4.91524 -1.2605 -44.6716 -3.69644
31 11 1 1.41291 -5.1134 -3.74815 5.69071 -6.67014 13.9082
311 104 2 3.00908 -5.71541 -3.21991 -8.51277 6.82825 -1.91608
504 168 2 1.50026 -0.612886 -3.79025 30.1047 11.1896 -4.41278
558 186 2 -3.03131 1.82194 -8.9469 -0.200288 5.80799 -4.13281
266 89 2 -1.06625 3.51896 -9.10143 6.40367 -0.158174 -10.609
556 186 1 -3.90141 1.88016 -9.49307 -14.7044 5.18539 -11.3683
123 41 2 -4.13299 5.18062 -9.07179 18.3102 16.8264 7.21479
286 96 1 -6.29188 5.2506 -9.26633 -3.89756 -15.28 -8.2837
288 96 2 -7.00062 4.5109 -9.55182 13.8197 31.5007 10.2198
194 65 2 -4.94748 1.41382 -6.83407 5.21274 -13.2123 3.87577
178 60 1 -4.46812 0.0014838 -6.8837 -6.08546 -15.2828 -8.95215
234 78 2 -0.0768816 0.522056 -5.66175 -3.97972 -13.5179 -5.02862
471 157 2 -5.33374 7.01274 -6.96859 -9.59817 -4.60513 5.76961
474 158 2 -6.53684 6.52421 -5.22325 -0.64551 1.95547 0.277686
265 89 1 -1.7631 3.39651 -8.37449 -4.80121 -9.28481 13.7612
267 89 2 -2.19949 4.29084 -8.12509 0.670366 -1.02627 -7.02187
364 122 1 -0.330768 2.12558 -4.90168 20.2458 -11.0422 25.563
195 65 2 -5.18944 2.33273 -8.16736 4.12426 0.727873 34.575
193 65 1 -5.32511 2.32942 -7.12022 -16.444 38.1058 -40.0066
536 179 2 -4.78365 5.2885 -4.0816 7.09847 11.1058 -14.7101
82 28 1 -1.49561 0.229483 -8.97867 -15.7508 -8.38183 -11.0545
84 28 2 -1.16107 1.06875 -8.50295 12.1947 -0.916009 1.71551
366 122 2 -0.755324 3.05167 -4.93202 -2.70379 8.25107 -3.38009
477 159 2 -4.46849 4.80377 -5.87681 9.30613 3.62469 -0.6662
476 159 2 -3.78368 3.4075 -6.15094 3.5425 -13.2943 -6.22196
475 159 1 -3.56209 4.32097 -5.7761 -27.3703 10.6959 -5.18525
634 212 1 -1.18076 4.96525 -4.98195 2.11509 -5.49226 -24.7049
636 212 2 -1.31955 5.42803 -4.08638 3.40054 -3.60726 6.32609
122 41 2 -3.3162 6.56356 -8.46166 -13.3091 -9.83018 -1.62016
121 41 1 -3.2114 5.66632 -8.9651 -14.9818 -4.24726 -4.80161
635 212 2 -2.11493 4.82065 -5.42839 3.93 -1.86004 7.94315
535 179 1 -5.06075 4.77909 -3.26716 -6.92994 -4.61851 21.6563
472 158 1 -6.14722 5.84707 -5.88083 9.92805 3.61006 5.2534
317 106 2 -7.00041 3.17406 -6.80037 3.90359 -4.80941 3.51885
473 158 2 -6.88136 5.17582 -6.11632 -4.23861 -7.78163 -2.47682
287 96 2 -6.63786 6.09316 -8.76585 -8.47869 -14.7477 -0.191752
534 178 2 -5.6442 0.457189 -3.63171 7.27238 22.5433 -1.50165
507 169 2 -5.59814 3.12215 -3.73854 3.39582 -5.96257 8.2109
505 169 1 -5.3035 2.16364 -3.48656 -7.00198 1.50172 -7.84679
506 169 2 -4.30107 2.20104 -3.59903 10.0946 -4.21243 1.94203
359 120 2 5.68631 3.67182 -9.34954 -9.65672 -10.1972 -16.5893
625 209 1 4.42414 0.241762 -5.35749 -8.6872 10.4313 9.90719
626 209 2 4.66327 0.469558 -6.32785 1.60847 -4.96618 -6.04603
365 122 2 0.306731 2.12531 -4.06612 -15.6913 1.93347 -21.2367
619 207 1 0.970885 4.28629 -7.17816 21.0155 -15.3272 3.6554
620 207 2 0.148918 4.4315 -6.59078 -7.85059 7.82051 -4.38103
347 116 2 5.00056 6.21658 -8.96434 22.1868 4.88984 17.159
555 185 2 3.87543 3.52594 -7.39517 4.84579 -11.5538 -28.0537
346 116 1 4.15454 6.18266 -9.48138 -13.9399 -25.0631 -20.5721
438 146 2 1.10944 0.523462 -7.22221 -0.980973 0.204111 -6.23272
436 146 1 1.24607 0.952996 -8.14403 2.57473 15.9017 6.01029
437 146 2 1.37255 1.97374 -8.0627 -2.99392 -14.5364 -0.725105
256 86 1 6.09442 3.64189 -3.56944 32.5057 19.7147 19.317
258 86 2 7.02182 4.03179 -3.33562 -21.0165 -2.59825 18.8848
257 86 2 6.29596 3.54114 -4.53868 -14.022 -11.7147 -37.4192
621 207 2 0.96789 4.69576 -8.12048 -10.2425 8.20573 2.7205
553 185 1 4.25682 3.08407 -8.27789 -3.65626 7.78638 36.2947
554 185 2 3.45435 2.84279 -8.90553 7.49127 6.95776 -0.9071
343 115 1 3.2365 3.83135 -5.73559 -25.0611 11.1902 -18.8205
344 115 2 2.25682 3.97219 -6.15866 34.3774 -7.14828 14.1905
306 102 2 6.27517 0.0563192 -8.33927 -17.5423 11.8867 -1.7478
345 115 2 3.47365 2.87033 -5.50134 -6.98633 -4.36524 2.67843
304 102 1 5.35462 0.348319 -7.97327 11.8029 -1.66974 3.32742
305 102 2 4.95715 1.21077 -8.37467 5.39148 -5.58952 -2.34691
58 20 1 3.39794 6.72971 -5.62857 5.09989 8.4229 -5.798
318 106 2 5.74587 3.50626 -6.94501 -4.04687 -3.96095 -3.39239
316 106 1 6.57102 3.62468 -6.36287 6.11834 7.26811 1.85452
60 20 2 3.86792 5.82053 -5.51159 -8.99435 5.87074 1.33154
500 167 2 1.99736 1.95128 -3.33908 -4.82264 -3.26938 7.70823
231 77 2 3.12737 4.72716 -3.71699 3.43142 -1.17614 1.95075
502 168 1 2.10495 0.23961 -3.71022 9.02734 4.63457 4.81408
503 168 2 3.10291 0.21535 -4.0415 -26.9348 -13.9256 -8.36696
456 152 2 -2.10398 -1.7793 -2.76425 -33.6893 -2.84523 -3.13487
454 152 1 -1.13417 -1.58767 -2.68934 38.3751 31.3314 2.06204
455 152 2 -0.948273 -0.594069 -2.39394 -5.5801 -19.2174 -1.95006
529 177 1 -4.06311 -0.114912 -0.392812 29.4268 26.4652 3.68732
297 99 2 -3.3697 -4.05939 2.29271 6.20522 -3.99279 -20.6982
4 2 1 -1.23274 -1.46101 0.589148 15.3399 5.04805 -38.8701
6 2 2 -2.04112 -1.18167 1.11152 -20.4138 8.7632 -1.57562
567 189 2 -4.30332 -0.946211 2.86699 -9.84823 5.79481 2.46661
296 99 2 -3.46633 -2.65202 1.55689 -1.09257 -23.4526 -15.7582
295 99 1 -3.20807 -3.66131 1.35232 -15.7091 15.2513 28.6582
152 51 2 -2.80439 -6.08461 -1.92933 17.336 8.28478 14.9359
513 171 2 -1.30188 -2.01381 2.33455 3.49971 -8.14535 31.8062
566 189 2 -4.47281 -0.593534 1.22976 1.83702 -14.7464 0.682997
565 189 1 -4.28138 -1.34386 1.92775 12.4071 5.09234 4.49193
151 51 1 -2.59188 -6.42801 -0.97007 -28.4274 -10.2955 -19.9426
153 51 2 -1.84819 -5.96619 -0.471893 12.6743 14.2566 -2.75327
614 205 2 -0.397168 -3.75169 2.69825 7.1035 8.70122 -4.07211
604 202 1 -4.95413 -4.02033 -0.955523 0.394268 -1.03176 16.3164
606 202 2 -4.31734 -3.99055 -0.14559 8.82978 1.84955 -4.55399
605 202 2 -5.86512 -3.79305 -0.528254 -4.41616 -0.532512 -11.362
328 110 1 -0.811629 -3.97913 -1.30317 18.3357 -20.9373 9.58225
329 110 2 -1.11262 -3.25241 -0.685953 -5.69724 17.1786 16.9975
420 140 2 -6.72846 -2.18045 -0.302406 -11.6553 6.15613 7.14412
330 110 2 -1.49596 -4.02594 -2.03847 -7.53275 -6.39424 -18.7975
622 208 1 -5.62054 -6.88011 -1.26343 -7.33549 13.9593 15.2831
623 208 2 -5.35997 -5.93524 -0.922804 -3.56552 -10.3885 -11.6572
124 42 1 -7.06916 -0.401063 2.4315 -14.5539 21.0942 2.95243
5 2 2 -1.27888 -1.09192 -0.402891 2.17509 -9.17988 38.7389
99 33 2 -4.64889 -6.64296 2.2607 5.39967 -3.37223 0.7861
135 45 2 -4.3802 -2.97392 -2.48621 0.832099 -11.6658 12.2636
98 33 2 -4.02908 -6.65813 0.754428 6.7859 7.09204 -18.3824
588 196 2 6.97537 -6.73099 -2.11785 -1.38739 0.17678 -11.1704
587 196 2 5.59931 -6.89906 -3.09112 -10.6583 4.2884 9.03417
586 196 1 6.60172 -6.71081 -3.08224 16.0364 -6.0377 -5.79956
615 205 2 0.814083 -3.72653 1.50006 7.20128 17.2719 -21.8442
613 205 1 0.455332 -4.19047 2.30887 -9.7451 -20.7139 23.7608
495 165 2 0.281912 -5.99167 1.8622 8.4034 -18.6648 25.4485
493 165 1 0.476062 -6.90955 2.34277 -5.81408 -5.49397 -36.9447
485 162 2 3.92685 -6.09828 0.901886 2.54494 -21.2864 1.92918
310 104 1 3.98795 -6.00638 -3.19663 -4.86841 -26.698 -32.6022
181 61 1 2.91178 -1.15931 1.52483 0.490099 26.8598 -37.5635
182 61 2 2.01944 -1.47334 1.12605 7.5911 -3.83075 10.6841
539 180 2 0.881517 -3.90881 -0.559849 -6.06183 6.75233 -19.2462
547 183 1 5.04766 -4.42776 -1.50504 -12.42 1.53301 7.50034
549 183 2 4.55811 -4.7436 -0.638058 8.2629 4.83783 -8.09427
312 104 2 4.58545 -5.21914 -2.9056 -3.23592 2.30543 17.1955
484 162 1 3.77159 -5.1004 0.785031 -12.6999 27.8752 1.99076
418 140 1 7.01093 -2.96117 -0.133026 11.6037 -5.47136 -7.52499
419 140 2 6.57667 -2.97004 0.793261 -3.22438 4.10328 1.39748
486 162 2 2.77505 -4.83528 0.625482 18.1636 -4.08722 0.324674
12 4 2 4.56695 -3.65259 1.8932 -6.1954 9.73806 -7.94912
10 4 1 5.1412 -2.81929 2.10331 23.1402 -4.61501 3.34124
538 180 1 1.728 -3.51079 -0.145015 -11.5354 -19.8613 40.5734
540 180 2 2.29077 -2.89696 -0.685555 8.1891 12.863 -25.1965
11 4 2 4.64434 -1.92363 2.07801 -19.3389 -5.74465 -6.78617
548 183 2 5.71058 -3.70522 -1.27551 15.9825 10.4005 11.0131
126 42 2 6.9796 -1.30576 2.16933 -0.779541 -16.9798 -4.15934
341 114 2 1.20858 -6.63952 -2.24042 15.3813 -26.5677 -4.34831
183 61 2 3.28082 -0.513582 0.77644 -8.04847 -17.1749 21.5928
429 143 2 5.82448 -5.92626 2.56611 -1.56041 2.58416 5.71081
577 193 1 -3.3912 5.50746 -1.26696 -11.2645 3.50181 -6.87086
579 193 2 -3.67087 5.20633 -0.309196 5.85531 -0.128445 -2.3806
530 177 2 -4.79013 0.00578106 -1.07269 -14.8295 -0.992882 -9.63468
624 208 2 -4.84084 7.06755 -1.73656 3.41939 -3.06957 -1.15911
611 204 2 -0.0654911 5.79474 -2.41184 -0.442957 -3.39904 -1.67776
610 204 1 -0.530339 4.8711 -2.36807 44.9373 -12.4151 1.57278
86 29 2 -0.262777 5.53445 -0.660005 8.2465 6.46296 -6.93902
87 29 2 -1.17239 5.40959 0.52952 -27.2679 -10.2499 17.8235
531 177 2 -3.4609 0.732683 -0.425806 -12.5665 -14.2548 -2.86534
578 193 2 -3.02428 6.48916 -1.20462 2.9318 -12.2697 5.79594
537 179 2 -4.40861 4.99146 -2.48402 -3.56712 2.68627 -5.18077
97 33 1 -4.09585 7.17216 1.5833 -3.34383 -4.6346 18.0033
253 85 1 -3.83872 4.5691 1.15817 4.69753 -16.4386 35.9294
254 85 2 -3.76402 5.49798 1.61239 -8.20528 10.1736 -15.9903
255 85 2 -3.74374 3.96105 2.00039 -4.25622 -1.46684 -16.7394
648 216 2 -1.93436 2.58465 1.93884 18.7294 0.289576 -35.4208
646 216 1 -1.327 2.5712 1.07183 -48.5096 -2.30528 32.7547
337 113 1 -5.82638 2.73767 -0.384233 9.92881 12.2505 -20.5171
339 113 2 -5.5865 2.71802 -1.3962 -11.7161 -8.26546 16.4493
138 46 2 -6.89111 0.0209665 -1.71049 13.1939 2.47482 -40.4893
136 46 1 -7.11331 0.0120448 -0.758333 -14.0336 -13.2445 42.8153
299 100 2 -2.47497 2.71676 -0.269632 -7.13332 9.43448 -27.7861
85 29 1 -0.377265 5.93774 0.273328 17.3725 -0.257279 -7.71816
300 100 2 -3.08513 3.51512 -1.7101 8.47498 18.8825 5.9553
298 100 1 -2.94817 2.64505 -1.21304 5.91685 -28.7976 22.0408
137 46 2 -7.17405 0.943016 -0.374227 5.18947 10.7574 0.041235
338 113 2 -5.13536 3.41807 -0.0483371 -3.26284 -4.68862 9.98421
647 216 2 -0.388011 2.60239 1.39913 30.3599 3.48163 6.48431
210 70 2 -7.02166 6.10698 -0.664782 -14.5894 -22.7308 13.4173
20 7 2 -0.357027 1.32875 -0.587711 -16.3763 -13.6963 -29.59
21 7 2 -1.41527 1.47718 -1.91481 2.04274 3.39337 8.53777
19 7 1 -0.783537 0.839039 -1.41598 10.4071 5.49105 18.678
501 167 2 2.42983 3.27167 -2.34856 -27.4301 -9.88211 -24.8626
499 167 1 1.62988 2.77713 -2.83849 19.6354 13.2188 14.5042
494 165 2 0.268326 6.7435 1.60455 0.753091 18.3951 15.1869
401 134 2 2.04527 6.99384 2.90037 16.7744 0.544769 11.3413
403 135 1 4.59639 6.73815 1.26692 8.60902 -24.9167 8.74687
612 204 2 0.272577 4.23215 -2.63311 -33.2629 12.6746 8.71152
342 114 2 2.35028 6.45104 -1.92413 0.375227 5.67583 -5.87347
229 77 1 3.51985 4.68763 -2.77093 25.5797 1.50582 7.53618
404 135 2 5.25214 5.9865 0.980547 -10.4801 21.059 -4.93578
405 135 2 4.14435 6.40519 2.13465 -2.6982 10.433 -2.90934
209 70 2 6.49355 4.79677 0.2314 13.6853 -8.50181 9.3865
208 70 1 6.55972 5.44404 -0.543687 4.43422 31.3009 -25.5386
340 114 1 1.44108 6.72606 -2.30619 -19.2205 23.4493 7.04561
230 77 2 4.56592 4.62373 -2.80124 -21.3171 -3.84319 -3.8682
468 156 2 3.33855 3.99378 -0.205332 13.4009 -3.51524 -0.954628
466 156 1 3.43963 3.08637 0.262198 -49.3693 11.5356 -1.05365
467 156 2 4.3471 2.69904 0.322308 37.8671 1.4659 -2.3984
224 75 2 3.19245 1.56959 -0.847751 -3.73732 5.15533 0.187438
223 75 1 3.21017 0.553546 -0.890784 5.87168 -20.7413 0.35344
225 75 2 3.26503 0.191677 -1.85143 -5.88263 8.52583 7.69184
88 30 1 6.24902 3.44663 1.33921 9.57818 10.584 32.2782
89 30 2 7.09117 3.05336 0.936042 13.2424 -5.69975 -17.6406
125 42 2 6.63121 0.281493 2.06464 5.95158 -4.96 7.30289
416 139 2 5.52714 2.12406 1.89687 -7.44528 -0.511857 3.98544
321 107 2 2.14974 3.0766 1.5504 23.9232 8.42892 -28.0634
319 107 1 1.62762 2.82057 2.35792 -13.4169 -4.15806 56.5018
417 139 2 4.06239 1.2814 2.04611 -5.2802 1.27825 1.08117
415 139 1 5.05693 1.26466 2.24365 11.2722 -6.36638 -0.527353
90 30 2 6.56282 3.76617 2.28726 -12.1715 -1.71019 -10.2786
47 16 2 -1.16497 -4.62972 5.0978 15.732 4.87379 -12.6643
46 16 1 -1.78531 -4.21043 5.7576 -26.0014 -26.8104 12.0432
512 171 2 -1.42193 -1.63053 4.03037 -1.77154 11.7237 -6.72305
511 171 1 -1.32392 -2.36944 3.32725 1.99473 -9.52731 -34.8025
563 188 2 -6.0251 -0.0397806 3.94596 -10.431 -2.37133 -8.81656
48 16 2 -1.59279 -3.25401 6.02202 8.72796 15.1638 2.85401
302 101 2 -2.73427 -6.72171 5.00978 6.53512 -19.6249 -3.61099
211 71 1 -1.87866 -0.109885 4.63711 -0.702217 3.46102 11.0216
303 101 2 -3.36066 -5.70816 5.96082 -1.84017 36.2979 14.1284
599 200 2 -4.97855 -6.24858 4.29255 11.0515 0.522544 3.12401
301 101 1 -3.46625 -6.66711 5.72443 -20.2649 -13.0193 -15.7373
63 21 2 -0.552182 -3.55769 9.11719 32.9373 -2.97429 -7.8532
41 14 2 -5.12886 -2.78446 6.56012 3.83991 0.81403 -12.154
42 14 2 -4.81185 -3.48169 4.98533 -0.400476 11.9793 -18.485
40 14 1 -4.89998 -3.5989 5.97236 -5.72026 -16.549 34.0387
238 80 1 -1.12324 -1.74592 6.81165 -7.99764 36.9094 -28.5984
240 80 2 -1.41958 -1.33534 7.69985 -5.92332 -11.0304 14.5353
92 31 2 -4.89474 -0.544758 9.37809 5.28341 8.24994 -3.33961
239 80 2 -1.5082 -1.04064 6.11773 15.6546 -28.7895 13.3037
150 50 2 -2.67585 -6.7668 7.99212 -16.1077 13.0531 -0.0316114
106 36 1 -5.09063 -2.18254 8.46586 3.17307 3.88346 2.81502
462 154 2 -0.437596 -6.90575 4.19698 -22.151 -15.075 8.82883
149 50 2 -1.60399 -7.13901 6.8042 -3.88811 0.312449 -8.70175
108 36 2 -4.49832 -3.01161 8.58032 1.40327 1.46801 0.0319047
246 82 2 -4.68888 -4.74282 7.56473 -16.4939 -4.3866 -22.7006
244 82 1 -4.23238 -4.95098 8.43515 22.9114 7.6257 8.36902
598 200 1 -5.25592 -5.79476 3.42784 -15.0451 -1.2292 16.2821
600 200 2 -6.2995 -5.76264 3.52573 6.56684 5.69271 -17.3308
202 68 1 -1.99136 -1.22336 9.43086 -5.08797 10.7392 -11.6073
107 36 2 -6.01643 -2.4236 8.79989 -8.83988 -3.85171 3.3505
50 17 2 -3.12664 -4.30562 9.31322 -6.42817 3.26919 -3.13979
245 82 2 -4.47471 -5.79188 8.96169 -20.1345 -10.2646 -1.75205
101 34 2 1.72809 -0.14495 3.54272 2.38213 -27.2192 -6.40664
61 21 1 0.400844 -3.42033 8.67799 -54.5999 21.0398 0.731638
62 21 2 0.107537 -2.71389 7.97511 11.2809 -13.4157 3.64579
433 145 1 5.23174 -0.38089 4.85851 -3.38485 -6.54268 33.2419
398 133 2 3.83493 -0.612774 5.90348 14.8887 8.78681 -7.90674
397 133 1 3.04413 -0.196697 6.39404 -25.9129 18.2231 11.5784
110 37 2 3.19624 -1.83306 8.76065 -0.907289 -37.2028 17.7969
434 145 2 5.49705 -1.34054 4.72692 6.42002 -16.3348 -5.38367
261 87 2 5.37644 -3.26623 3.58402 5.31466 -3.33468 21.1103
259 87 1 5.43085 -3.49353 4.61818 -32.14 2.68099 -2.68459
428 143 2 6.12671 -5.08556 4.04501 -10.6984 7.30582 0.207358
260 87 2 4.42513 -3.72323 4.87401 26.7652 3.58733 -15.4145
411 137 2 6.30668 -5.40399 7.26153 4.66496 21.272 5.45308
410 137 2 5.08258 -6.19303 6.4556 13.6092 -8.76861 4.22498
409 137 1 6.01572 -6.30121 6.92869 -15.5102 -11.4278 -7.59988
218 73 2 0.389769 -1.93241 5.75943 -2.738 2.78407 0.386619
217 73 1 1.2252 -1.74792 5.19993 2.68688 -18.9866 2.46872
375 125 2 0.538299 -7.09011 7.62004 -3.32595 0.42981 0.852051
373 125 1 1.55025 -7.07439 7.7079 4.66667 1.68692 -1.46944
219 73 2 2.01999 -1.51322 5.81564 -6.92795 10.3882 -4.65811
590 197 2 2.19596 -4.33906 3.51994 -12.5684 -15.9206 -20.6417
591 197 2 2.17808 -3.12698 4.49227 -10.5407 20.9385 9.24172
589 197 1 2.77265 -3.88064 4.18999 16.8368 0.0587717 11.0585
457 153 1 5.56803 -3.28908 7.3369 5.91307 -0.0718826 15.2271
374 125 2 1.78267 -6.71768 8.64062 1.49338 -3.95161 -0.584218
459 153 2 5.78872 -3.22871 6.33259 -11.3681 -4.89657 -4.7929
427 143 1 6.49949 -5.65615 3.28658 9.40572 -12.9653 -5.57883
389 130 2 2.81252 -6.69196 6.35219 2.93764 3.26973 -8.73806
390 130 2 3.31263 -6.70848 4.70168 0.893862 -4.09944 11.9318
388 130 1 3.58436 -6.50547 5.68561 -2.37598 -0.839331 7.68279
252 84 2 5.85167 -6.94969 8.81314 0.184977 -4.9433 7.59653
111 37 2 2.09006 -3.08008 8.88181 -6.10375 -7.39396 1.23073
109 37 1 3.06055 -2.83053 9.08457 9.99846 47.768 -17.8972
327 109 2 6.21822 -3.22369 8.821 18.4849 -16.8865 21.6354
458 153 2 4.63628 -3.64413 7.59206 2.32511 5.25182 -8.19111
562 188 1 -5.0712 0.158963 4.24174 33.2399 4.84001 16.535
213 71 2 -1.29918 0.688733 4.96633 -6.19154 -7.47989 -0.064662
212 71 2 -2.88286 0.0634647 4.713 -0.410906 4.04737 -2.47191
460 154 1 -1.1713 6.86117 4.62557 31.701 31.3149 -14.6829
564 188 2 -4.96505 0.201113 5.2806 -12.1358 1.33747 -8.73767
450 150 2 -4.25139 1.99212 3.53889 13.2765 22.9798 -4.30427
461 154 2 -0.983011 5.98525 4.15048 -4.76099 -13.5234 3.18679
580 194 1 -4.83469 5.63456 6.90775 8.00666 26.0069 5.41566
582 194 2 -4.91849 5.94855 7.88511 5.83044 -3.1567 -8.56821
581 194 2 -4.37728 6.39394 6.34207 -0.807189 -9.1111 9.21535
527 176 2 -3.12741 3.11687 7.19266 -16.2832 6.42201 -36.3901
27 9 2 -1.53721 2.43568 8.60864 -3.80375 13.194 -43.3402
528 176 2 -4.23722 4.20921 6.51876 -8.78061 15.9658 5.37318
25 9 1 -1.52317 2.55064 7.5526 -7.38319 -7.34455 81.2272
26 9 2 -0.943902 1.76042 7.26534 2.45762 3.2677 -19.2903
165 55 2 -1.67645 5.64939 8.91131 -9.73311 -4.66671 11.6669
448 150 1 -3.67293 2.86597 3.45589 -3.74043 -19.8683 25.8567
167 56 2 -4.35462 1.62836 6.46398 -0.809724 12.6613 14.0008
168 56 2 -4.74976 0.682883 7.84429 4.15667 6.65733 27.8051
166 56 1 -4.76162 0.765724 6.84555 -4.67368 -16.3752 -37.9906
526 176 1 -3.79982 3.29754 6.38391 29.2701 -31.082 16.2522
291 97 2 -6.3367 5.61574 6.56353 5.57576 -9.30112 -6.37996
449 150 2 -3.35958 3.11273 4.4283 -12.0961 -3.03538 -22.9881
496 166 1 -0.557016 4.08333 4.95395 15.8523 -34.6075 -22.0169
148 50 1 -1.81726 7.15067 7.79354 30.284 -20.3233 15.2224
497 166 2 -0.57232 3.05382 5.08017 3.48859 12.4582 -5.34399
498 166 2 -1.01368 4.39903 5.7637 -19.4892 19.7923 31.3704
161 54 2 -6.17918 4.20555 3.91197 9.37437 1.55472 3.33982
160 54 1 -7.17377 4.17631 4.06307 -18.9777 6.22668 9.61589