ITEM: TIMESTEP
38500
ITEM: NUMBER OF ATOMS
648
ITEM: BOX BOUNDS pp pp pp
-7.1953739490450594e+00 7.1953739490450594e+00
-7.1953739490450594e+00 7.1953739490450594e+00
-1.5989719886766990e+01 1.5989719886766990e+01
ITEM: ATOMS id mol type x y z fx fy fz
331 111 1 -4.6558 -1.02689 -10.5515 -3.37361 17.0426 6.63382
333 111 2 -4.37864 -0.995272 -11.5284 -2.24109 0.317144 -7.71919
332 111 2 -5.11108 -0.138168 -10.2785 6.41878 -7.01025 -5.36194
644 215 2 -3.79873 -5.76475 -10.7947 -1.44071 -15.4773 3.68835
131 44 2 -6.73516 -4.69319 -12.6265 6.31456 -17.2839 5.23695
130 44 1 -5.91593 -4.368 -13.1568 -0.210207 24.7739 -27.3489
643 215 1 -3.84702 -4.9389 -11.3815 -0.160458 10.7471 4.00789
645 215 2 -3.16349 -5.05443 -12.1198 9.14989 -1.98474 -9.97984
132 44 2 -5.00968 -4.58665 -12.7424 -3.86089 -12.3913 16.7452
80 27 2 -4.7102 -2.4018 -9.86398 -0.981407 -4.52044 7.32633
242 81 2 -1.2597 -5.9334 -13.0072 -3.88858 14.2919 -12.0107
243 81 2 -1.14809 -4.99519 -14.4127 12.5748 -0.704764 -16.9201
241 81 1 -1.65202 -5.14247 -13.5565 -9.30715 -14.9488 36.728
609 203 2 -3.32264 -2.87962 -15.8381 -9.56683 -3.01901 5.43382
284 95 2 -1.24584 -3.73803 -12.5822 -0.531233 1.53813 -14.4445
476 159 2 -1.40518 -0.341835 -9.64613 -26.9458 -7.03158 25.2521
637 213 1 -4.72074 -1.66177 -13.5843 -1.68245 0.346813 1.79472
639 213 2 -4.51149 -2.63259 -13.3329 -7.18199 1.8409 -1.36973
638 213 2 -5.69848 -1.59604 -13.9038 8.45792 -0.940966 -0.258932
368 123 2 -6.5712 -4.69811 -14.8953 7.25872 -3.99893 -0.803945
367 123 1 -6.80683 -5.09239 -15.8168 -5.14657 2.73292 -16.3485
285 95 2 -0.80618 -2.04254 -12.8565 -2.74763 -27.6095 6.93159
283 95 1 -0.787245 -2.88633 -12.246 5.49721 27.2447 7.19514
430 144 1 -2.54673 -0.076902 -13.9463 14.0296 -6.14322 -13.1893
387 129 2 -7.0208 -0.107339 -13.606 -9.16636 3.47294 -20.2956
432 144 2 -3.38152 -0.661812 -13.8091 -10.592 3.78974 10.9206
617 206 2 -1.26493 -6.99695 -10.5076 -14.7414 -0.588781 19.7399
616 206 1 -0.419685 -6.81064 -11.0106 21.5905 0.253737 -36.6052
81 27 2 -4.27206 -4.02409 -9.91147 -19.9516 26.9263 15.4612
38 13 2 -0.0552095 -3.03264 -10.4994 4.5258 0.771721 9.54431
377 126 2 -2.11031 -0.0362815 -15.4298 0.05453 -0.778652 14.2005
345 115 2 6.53955 -2.134 -12.3169 26.3386 20.446 -11.2147
44 15 2 1.92583 -4.42822 -9.73283 9.91636 12.5446 9.78
627 209 2 6.64952 -6.54188 -12.2716 12.1589 -4.67657 -7.69109
343 115 1 5.97372 -2.87434 -12.0005 -13.554 -62.5227 18.0983
344 115 2 6.42132 -3.85741 -12.0238 -26.6595 47.2904 -0.974482
625 209 1 6.38703 -5.58402 -12.0123 -4.92188 2.76463 11.2276
14 5 2 3.42592 -6.2319 -12.571 1.42372 -0.860404 -0.568279
13 5 1 3.18923 -5.26396 -12.846 -7.26342 8.48011 4.03924
334 112 1 1.42405 -2.06492 -14.7613 -1.93206 0.240627 -25.9374
15 5 2 3.82448 -4.94004 -13.584 2.8909 -4.54545 -0.950728
557 186 2 2.79426 -3.39577 -12.4733 -1.15118 2.98724 1.18229
262 88 1 0.729853 -4.68885 -15.3483 -11.045 -2.01626 19.8922
264 88 2 1.00562 -3.96217 -14.6533 -1.85967 -0.0826436 -21.1282
2 1 2 3.96101 -5.27381 -15.7033 14.7938 10.1794 7.844
362 121 2 1.04589 -6.24025 -14.6075 8.57501 14.5935 -6.34813
363 121 2 2.25698 -7.19278 -13.8991 -3.84601 1.93316 -5.65156
361 121 1 1.50323 -7.1556 -14.605 -1.10828 -16.7596 11.1631
1 1 1 4.73558 -4.76742 -15.2222 2.325 -22.1175 -11.2222
3 1 2 5.63565 -5.27443 -15.3815 -15.2107 11.4285 4.09537
532 178 1 4.62899 -5.82296 -9.91895 21.7052 4.94567 -31.9253
626 209 2 5.75928 -5.77196 -11.2117 -7.01123 8.1793 1.72453
336 112 2 1.85851 -1.5407 -14.032 9.2106 3.27116 20.2647
335 112 2 1.97459 -1.85704 -15.6205 -8.26806 -6.85484 5.38388
556 186 1 2.97624 -2.39806 -12.2948 16.7795 -1.40016 -2.45898
558 186 2 4.00461 -2.29029 -12.3147 -11.5021 -3.43884 -0.77324
348 116 2 4.99468 -3.08329 -15.0941 -20.682 -14.0794 -4.11135
385 129 1 7.12886 -0.420383 -14.5774 15.6075 -3.05644 13.6436
618 206 2 0.287968 -6.14272 -10.6088 -12.5541 -8.1823 4.66489
346 116 1 4.92798 -2.06258 -15.1524 6.58996 -9.91622 -5.68778
45 15 2 2.00839 -5.28963 -11.1761 3.14003 3.09944 8.93883
43 15 1 1.51036 -5.16401 -10.2816 -8.27433 -14.3115 -21.5809
623 208 2 5.29028 -0.599577 -9.60858 3.08774 8.76611 0.111291
116 39 2 5.11788 -3.0924 -10.3191 -13.0661 5.23345 13.3314
458 153 2 2.19271 -0.760677 -11.6741 9.73463 -17.2255 2.38428
457 153 1 2.32557 -0.0775464 -10.9255 -12.4932 11.226 -2.7615
459 153 2 3.16685 -0.247317 -10.39 3.03583 -6.46134 3.12913
347 116 2 5.8412 -1.86839 -14.777 13.7903 26.403 5.13919
431 144 2 -2.41667 0.763081 -13.397 -11.2224 5.1086 14.5295
199 67 1 -0.567615 5.84733 -13.679 42.9591 41.4255 8.76776
386 129 2 -6.80237 0.126788 -15.3642 -5.64551 -12.889 21.9014
226 76 1 -1.99843 5.7287 -15.8273 -14.7913 -6.75369 -7.73453
228 76 2 -1.45871 5.85463 -14.925 -6.86462 0.704174 -13.3942
200 67 2 -0.477003 6.29051 -12.7567 -12.117 -12.2966 4.76015
175 59 1 -6.93167 6.44308 -12.7094 27.5003 0.120378 3.87495
358 120 1 -7.14801 0.524317 -11.8572 26.0902 40.0765 -36.5756
176 59 2 -5.93015 6.44275 -13.0432 -19.1722 5.18089 12.6619
145 49 1 -2.67398 4.59359 -11.5191 16.9767 6.6161 -4.60017
146 49 2 -1.74934 4.27585 -11.8612 -1.5649 8.38644 3.51175
147 49 2 -3.17855 3.74741 -11.7384 -20.2513 -15.2248 -3.42888
621 207 2 -3.59989 6.43813 -14.1091 -15.9984 5.0783 18.2449
318 106 2 -3.05623 5.98213 -10.5811 6.15519 -6.56109 -5.21609
585 195 2 -2.32577 3.78326 -15.1833 6.74786 14.9013 -0.348967
583 195 1 -1.90117 2.88341 -14.9854 -25.4305 -25.7486 8.18962
584 195 2 -2.74848 2.3008 -14.7765 18.0205 16.6546 -3.24865
316 106 1 -3.05166 6.85895 -10.0468 -2.87336 11.4033 18.8713
29 10 2 -4.95281 1.95541 -12.3356 -14.719 1.71102 -15.2694
516 172 2 -0.766288 3.20649 -13.3871 -17.9013 5.64917 -14.1311
28 10 1 -4.02683 2.19952 -12.046 12.0932 -3.06895 21.202
30 10 2 -4.10759 2.08884 -11.0289 7.04743 -1.56108 5.80586
620 207 2 -3.7431 6.10246 -12.4859 2.14246 -3.05359 3.08355
619 207 1 -4.20484 6.55662 -13.2712 13.2272 -7.08203 -22.032
514 172 1 -0.590071 2.98325 -12.4152 15.2823 -7.66071 1.62216
355 119 1 -4.5719 2.72764 -14.8175 14.4649 -23.6858 7.71678
357 119 2 -5.11754 3.39946 -15.3116 -16.805 16.633 -7.20707
265 89 1 -6.7809 3.08825 -12.334 -8.46 -15.3004 5.70886
456 152 2 -0.780788 1.31376 -11.1323 2.69165 13.3909 -8.82567
267 89 2 -6.28357 3.8183 -11.8148 -2.73073 8.83143 -11.6446
454 152 1 -0.38113 0.575721 -10.5697 -5.33835 -19.3995 7.06268
266 89 2 -6.98065 3.22449 -13.3539 7.69586 6.39441 12.8777
360 120 2 -7.0586 1.58376 -12.0275 -3.75897 -40.343 6.26578
611 204 2 -0.230887 3.94202 -10.1082 2.36309 10.6725 -9.25541
356 119 2 -5.08056 1.87293 -14.5722 0.830622 9.4375 -6.43026
573 191 2 -6.97995 2.11631 -15.547 -7.54167 7.11582 5.41321
201 67 2 0.324316 6.29563 -14.0658 -26.525 -25.2812 -2.7389
220 74 1 3.44207 6.41829 -12.4833 -4.3605 11.5089 -8.23356
359 120 2 6.75996 0.37994 -10.9898 -17.8399 -4.11465 21.7231
455 152 2 0.555864 0.294139 -10.8966 1.09962 6.22916 6.04635
221 74 2 3.23459 5.59304 -13.058 -1.11818 -8.97994 -2.45577
222 74 2 4.16582 6.17769 -11.8045 5.0222 -5.73046 8.66122
177 59 2 6.88879 6.30309 -13.5487 -3.44318 -8.01192 -11.1792
523 175 1 2.65428 2.19616 -12.1551 29.741 1.36761 20.7253
525 175 2 3.51298 2.54668 -11.6153 -29.174 -2.3509 -26.0581
174 58 2 5.0426 0.311147 -15.1996 6.35895 -5.53023 6.11627
524 175 2 2.61804 1.2329 -11.7579 -12.6421 11.0613 -5.42785
509 170 2 6.34373 5.65966 -11.2317 22.7237 -1.43088 -11.9714
510 170 2 5.37057 4.43362 -10.5213 3.17439 -4.38618 -2.12067
508 170 1 5.49993 5.42247 -10.7497 -28.2297 11.6187 10.854
515 172 2 0.400139 2.74781 -12.501 5.38721 0.701819 15.4565
142 48 1 2.8076 4.20395 -14.1308 -12.1306 -46.1759 -5.50671
144 48 2 2.41621 3.98811 -15.0641 1.20639 18.9571 0.751623
143 48 2 2.66768 3.2466 -13.7112 13.3705 32.585 9.63046
172 58 1 4.70223 1.23552 -14.9499 -3.28539 0.00909818 -5.56485
553 185 1 4.99129 2.67739 -11.0467 1.41548 -26.3193 21.0409
173 58 2 3.85462 1.36248 -15.5087 -5.1395 8.3634 0.535752
555 185 2 5.76527 2.88312 -11.651 14.3091 7.78861 -13.6719
622 208 1 5.61574 0.377044 -9.6871 14.0777 -15.6746 20.7487
554 185 2 5.23522 1.78251 -10.5491 -11.0768 19.1828 -3.12465
612 204 2 1.19763 5.0029 -10.0046 -18.1796 -10.6151 -4.46766
610 204 1 0.680957 4.156 -9.71166 16.3889 0.658153 14.3579
520 174 1 6.37757 5.47543 -14.9234 6.36957 -7.64502 -2.36891
521 174 2 5.37295 5.68066 -15.1306 4.67135 -7.11118 1.43336
522 174 2 6.64997 4.46979 -14.8222 -16.6784 12.8906 -6.43817
572 191 2 6.01084 2.31072 -14.6727 6.6256 2.53205 -8.21551
571 191 1 6.9376 2.75893 -14.8829 -5.47277 -8.04577 -4.5355
630 210 2 3.28501 5.62665 -15.7097 -10.2173 -2.98301 2.43487
628 210 1 4.05917 6.22991 -15.974 10.3029 12.4488 -15.4376
475 159 1 -2.12636 -0.812327 -9.0046 18.635 12.6843 -39.1615
79 27 1 -4.68208 -3.27303 -9.28209 20.945 -29.1677 -14.8003
39 13 2 -1.03688 -2.10256 -9.58693 48.6467 -32.3497 16.3418
194 65 2 -6.28329 -4.91155 -4.68947 8.35705 -5.26218 5.01486
193 65 1 -6.45084 -4.62698 -3.71526 -25.7902 7.64954 -10.944
492 164 2 -5.77206 -1.9165 -7.66983 -6.49359 -3.33688 3.51374
490 164 1 -6.38141 -1.91225 -6.84326 0.324455 2.73002 -16.5732
491 164 2 -5.79577 -1.96288 -6.01525 4.64247 0.286513 14.7664
349 117 1 -1.54113 -4.93295 -5.22025 -3.80499 1.93975 6.54349
351 117 2 -0.915331 -5.19754 -5.98754 3.90398 -5.11332 -0.738794
350 117 2 -2.41892 -4.61463 -5.63171 -1.48852 4.49479 -5.84396
37 13 1 -0.152359 -2.72214 -9.51226 -65.5803 30.5007 -20.6845
135 45 2 -3.94329 -3.59975 -7.64075 2.51371 5.59743 7.86641
134 45 2 -2.85946 -2.48251 -7.19737 -17.6238 -30.9881 22.0376
304 102 1 -4.59699 -1.70097 -4.63134 3.40879 -16.6656 -27.9539
477 159 2 -3.06371 -0.551416 -9.34767 9.75729 -5.19895 4.6729
133 45 1 -3.42402 -3.28941 -6.79268 14.4782 32.4236 -32.2136
342 114 2 -0.491801 -3.2879 -5.11458 -5.56161 -12.7597 -3.98769
57 19 2 -4.71104 -5.03382 -6.59885 -19.3413 -21.9502 6.73124
55 19 1 -5.35992 -5.80742 -6.33695 25.7683 25.623 1.26389
56 19 2 -5.73213 -6.27735 -7.17057 -10.5473 1.20841 -5.48871
258 86 2 -0.987081 -0.0575299 -6.25413 -6.31934 -6.90613 -4.21591
53 18 2 -2.24738 -5.91664 -3.88951 -5.09162 -1.73808 -2.00644
306 102 2 -3.92918 -1.0772 -4.21693 6.08302 10.9157 13.7837
305 102 2 -4.07388 -2.3015 -5.29374 -7.1909 1.02414 8.07688
59 20 2 -0.117667 -0.761879 -8.16498 -3.88041 -8.34133 -8.6463
352 118 1 -6.79235 -6.99553 -8.39536 6.55143 -37.5152 5.63616
364 122 1 -1.42872 -5.55113 -8.31317 4.57755 22.8785 9.57569
365 122 2 -1.28882 -4.53515 -8.50294 -1.87096 -25.921 -4.52929
366 122 2 -1.96205 -6.07587 -8.99947 -3.25912 2.5868 -4.91478
257 86 2 -2.18205 -0.319196 -5.06405 12.0553 2.16506 3.30415
601 201 1 -2.08633 -0.665148 -3.20326 -36.5457 3.10747 8.66033
534 178 2 4.75621 -4.89329 -9.52792 -5.54748 2.18157 12.4777
533 178 2 4.19893 -6.49402 -9.29856 -12.8014 -4.92489 21.3471
384 128 2 0.835696 -6.94029 -5.92081 -3.25126 -14.2157 9.99492
195 65 2 6.98285 -4.21527 -3.74655 22.9181 -5.02508 8.2934
60 20 2 0.733203 -1.51789 -6.86512 -16.2419 17.1077 -9.53301
341 114 2 0.224823 -2.17111 -4.20938 7.01669 1.87533 -4.73749
381 127 2 6.88379 -3.52807 -7.14423 11.1106 -2.17113 9.61063
8 3 2 6.09848 -1.52987 -6.4291 19.3235 -12.5893 -2.12591
9 3 2 4.47815 -1.84648 -6.15789 7.83656 8.67667 -0.161882
7 3 1 5.19396 -1.11108 -6.31854 -28.3812 6.6637 0.281368
340 114 1 0.249333 -2.59755 -5.14538 2.81851 8.27466 10.9102
82 28 1 2.31747 -2.98612 -8.59564 20.6208 -6.34478 46.4807
380 127 2 5.44859 -3.46774 -7.66233 -23.9494 2.31824 -19.1011
379 127 1 5.96593 -3.89686 -6.9183 10.938 -6.23137 13.2216
117 39 2 3.78954 -2.84247 -9.15166 1.40046 -6.33597 -7.6579
115 39 1 4.81109 -2.98308 -9.32627 21.3102 2.51002 -10.467
58 20 1 0.284074 -0.660399 -7.24365 21.8275 -1.04262 20.6579
538 180 1 2.84505 -2.97087 -5.88934 -11.9043 6.07142 -11.482
540 180 2 1.89213 -2.59115 -5.72223 7.74691 -5.96734 10.3067
539 180 2 2.80983 -3.97017 -5.701 5.46017 -3.11051 3.23254
183 61 2 5.27786 -4.96618 -5.48901 -7.11136 0.511613 -7.61121
84 28 2 1.30864 -2.94728 -8.67607 -23.5591 5.1337 -18.2812
83 28 2 2.48381 -3.05238 -7.55245 5.95618 2.71927 -29.8145
182 61 2 4.75751 -4.73365 -3.96249 -5.02204 -4.88932 -17.703
383 128 2 0.316676 -6.4621 -7.43126 -10.7554 -1.48173 -12.6996
420 140 2 2.64251 -6.59465 -7.17451 -0.341898 -0.413654 0.54075
418 140 1 3.43424 -7.01057 -7.67139 16.8726 -12.5857 6.36525
382 128 1 0.833735 -6.20651 -6.60408 14.7568 16.9064 5.51944
354 118 2 6.95104 -7.15705 -9.15474 -8.41689 13.4394 -7.2533
181 61 1 4.72977 -5.42656 -4.74638 14.9692 7.57209 11.2627
69 23 2 5.48862 -6.91407 -5.26095 2.08649 -13.4708 -13.0925
268 90 1 4.81487 -3.24759 -3.26828 -4.47507 -5.29674 5.21995
269 90 2 4.54411 -2.25432 -3.33863 3.66771 -11.1121 5.34263
372 124 2 -6.8195 4.05478 -8.17887 -3.44717 11.4734 -34.9727
179 60 2 -5.68995 2.24714 -9.44678 -18.9668 16.4425 -3.24008
370 124 1 -6.39681 4.2245 -9.1344 7.65828 -20.9309 54.05
317 106 2 -3.42881 6.58659 -9.10132 2.48278 1.88637 -14.1767
371 124 2 -5.41659 4.19749 -8.83849 -2.555 10.6162 -17.3119
471 157 2 -6.79668 0.0289782 -5.18979 2.22667 -19.1321 8.58411
469 157 1 -6.59655 1.0092 -5.13563 11.699 0.360476 4.16713
353 118 2 -6.55757 6.40986 -8.1711 4.68857 20.2435 1.37665
375 125 2 -0.869398 0.695441 -3.33994 -14.0589 -8.0166 9.48893
178 60 1 -4.88067 1.65843 -9.45308 6.48131 -15.2111 1.28568
180 60 2 -4.75326 1.35155 -8.47064 10.5143 0.0282061 -2.10869
123 41 2 -4.00679 4.98437 -7.38821 8.46463 -13.9448 8.77874
307 103 1 -4.18901 1.10294 -6.8981 -57.3124 -44.0081 18.42
308 103 2 -4.93864 0.710109 -6.24984 23.614 24.5311 -24.3656
309 103 2 -3.33932 0.601221 -6.59532 18.2956 0.378069 -2.91713
535 179 1 -3.8738 3.55531 -6.55852 -8.52908 44.3931 -1.37502
536 179 2 -4.09203 2.649 -6.96766 -0.526646 -23.2484 -2.7571
537 179 2 -3.36483 3.30016 -5.72017 11.0298 3.27366 10.4173
122 41 2 -4.05422 6.56808 -6.99753 -1.4561 7.21422 7.45618
121 41 1 -4.07192 5.92449 -7.77655 -1.87552 10.402 -11.8439
256 86 1 -1.99086 0.048085 -6.00246 -2.45778 0.685251 9.87816
438 146 2 -1.62319 6.33554 -4.29709 2.0702 -13.3618 -12.3283
436 146 1 -1.17326 5.64427 -4.92168 13.5691 48.6395 19.978
474 158 2 -1.49277 2.2948 -5.9531 11.5716 -8.82041 19.4074
18 6 2 -6.26106 1.66176 -3.41077 0.391586 -6.94318 -8.84789
120 40 2 -5.51356 4.23857 -6.41681 7.49256 -5.85248 12.825
118 40 1 -6.47737 4.53848 -6.2778 -18.4701 -3.47519 9.54985
437 146 2 -1.69818 4.7962 -4.95736 -10.3622 -28.1098 -2.92566
119 40 2 -6.90235 4.21194 -5.36548 9.47503 10.9919 -25.317
473 158 2 -0.931449 2.68025 -4.25883 -0.687101 -20.7212 -9.15117
472 158 1 -1.44397 2.9043 -5.12415 -14.9719 22.0493 -7.62605
419 140 2 4.13138 6.94355 -7.03433 -13.8852 11.4386 -5.04158
470 157 2 7.09292 1.36219 -5.77371 -12.936 18.3208 -15.4048
500 167 2 1.49884 3.19741 -8.63428 2.63558 -3.00093 -2.27099
413 138 2 5.51862 2.37284 -7.45234 -12.4427 12.8659 -0.555821
499 167 1 2.07022 2.55861 -8.04011 -1.70189 11.5721 1.0304
501 167 2 1.79119 1.60895 -8.21219 -5.26522 -14.8915 -6.43566
412 138 1 6.02196 1.53001 -7.15853 -6.33565 -43.3896 1.67306
414 138 2 5.36684 0.704718 -7.04129 18.2133 28.0146 4.33774
624 208 2 6.1221 0.593626 -8.79168 -16.3311 2.85173 -18.4279
86 29 2 5.57214 5.05427 -4.64246 1.03221 3.11406 -6.72146
68 23 2 6.44167 6.33673 -6.21651 -5.88528 7.89279 8.82947
549 183 2 4.44483 4.69848 -8.01626 2.69904 6.36889 -2.08685
67 23 1 5.57095 6.52818 -5.69655 -4.27437 6.71407 0.427812
87 29 2 5.54253 3.673 -3.6837 -3.73113 -0.937419 -0.344409
85 29 1 6.13484 4.32428 -4.18815 8.1729 -5.14129 13.971
547 183 1 4.51075 3.70689 -7.83564 -20.2612 -10.9351 4.48624
198 66 2 0.460889 5.78322 -4.0184 -6.64784 7.89702 -1.37921
196 66 1 1.4575 5.77838 -3.79358 -4.83494 -12.9761 -5.51818
197 66 2 1.7413 4.91389 -4.26095 10.8268 -0.056824 -0.143339
548 183 2 3.52064 3.34937 -7.76886 22.1428 1.91081 -4.78189
287 96 2 4.65808 6.96787 -3.21612 -16.4175 3.95713 -10.7183
288 96 2 2.98854 6.30044 -3.28988 8.2163 9.03819 -6.13868
280 94 1 1.93438 3.0648 -5.46635 -8.04392 -4.16046 -3.62529
282 94 2 1.94707 2.65379 -6.42955 8.82423 13.7994 11.6139
281 94 2 0.96869 3.02486 -5.16671 -1.9842 -0.857622 3.28047
158 53 2 -5.32552 -4.93396 -2.38248 -9.53803 4.86214 -20.2415
54 18 2 -3.45691 -5.91814 -2.71109 -4.08915 0.0572075 0.908243
299 100 2 -1.13361 -6.07312 -2.2723 0.501371 8.25914 -9.42406
159 53 2 -5.18998 -6.06745 -1.2898 12.5824 17.7471 0.464661
52 18 1 -2.74611 -6.49141 -3.18397 15.3415 2.72837 -1.65405
157 53 1 -4.68566 -5.21897 -1.64022 -12.0704 -24.2207 8.28214
300 100 2 -0.0326388 -6.81422 -1.53759 21.6901 -6.26885 11.1101
298 100 1 -0.155308 -5.91874 -2.01846 -28.1582 -0.552313 2.34738
259 87 1 -0.292657 -0.359523 -0.356891 -4.52454 -25.4418 8.01366
4 2 1 -2.24353 -5.36033 2.77009 -9.70524 -7.86185 -20.8165
5 2 2 -1.86743 -5.41891 1.82772 -9.91168 3.82967 -2.25301
576 192 2 -1.89752 -2.96777 -1.83405 -5.64949 13.7794 4.08596
138 46 2 -4.92837 -2.12749 2.28795 18.384 -18.0142 10.1621
574 192 1 -1.00749 -2.88609 -2.32346 -19.7899 -29.9916 14.2074
603 201 2 -1.65406 -1.58118 -2.97634 7.23308 5.89219 1.52018
602 201 2 -2.90507 -0.518201 -2.52082 26.9796 -2.62517 -24.3136
565 189 1 -0.779859 -3.2625 1.3585 -53.8815 -0.601826 -52.1354
566 189 2 -1.5941 -3.33687 0.642651 40.0457 0.146305 40.3603
575 192 2 -0.783753 -3.8803 -2.21501 23.3182 3.37304 -11.1289
137 46 2 -5.71876 -2.25049 1.13928 -17.4917 -5.26739 -32.755
136 46 1 -4.97106 -2.8035 1.51873 -7.4921 23.0218 30.228
504 168 2 -5.50046 -1.84667 -1.6534 -17.4639 -6.59927 10.6847
502 168 1 -6.09468 -2.63983 -1.32615 22.8329 9.84371 -10.7619
503 168 2 -5.53104 -3.44409 -1.61866 -11.7317 0.967973 6.01398
260 87 2 -0.863138 -1.20505 -0.487768 13.5761 7.09984 -1.31937
209 70 2 -3.66245 -4.19494 -0.76717 -3.70404 -6.92692 -2.18815
498 166 2 -7.04514 -0.878409 2.66966 7.84014 -5.65746 2.86239
210 70 2 -3.6291 -3.5554 0.73899 -1.44315 6.94565 -7.13766
208 70 1 -3.06903 -3.64818 -0.13099 16.2773 0.243269 2.09995
496 166 1 -6.88778 -0.153142 1.94367 -3.55836 10.2361 -10.356
10 4 1 -7.0237 -6.9786 -0.553238 -46.9708 14.4589 13.3448
31 11 1 -4.18422 -0.371288 -1.6502 -0.414918 -10.3876 -7.66231
563 188 2 -3.40176 -1.00831 1.1756 0.709347 2.02003 -0.230462
562 188 1 -2.99912 -0.0962505 0.965906 7.00238 1.54722 6.63977
11 4 2 -6.77155 -6.54085 0.345496 12.1629 -3.96708 -4.93928
507 169 2 -5.56847 -4.70746 1.36363 5.67201 5.61817 -5.33188
505 169 1 -5.59262 -5.71417 1.52929 9.8917 0.877374 24.1217
506 169 2 -4.97798 -5.8669 2.36533 -15.1754 -2.28228 -15.7213
405 135 2 -1.52455 -2.42384 2.57811 -0.467292 -8.4129 -5.07557
512 171 2 -7.11173 -4.86762 2.45215 4.66397 -14.4599 2.68174
567 189 2 0.12394 -3.44383 0.861565 -1.69793 5.2659 11.4662
88 30 1 4.86837 -5.95977 -0.89343 21.4486 19.4697 9.66364
89 30 2 3.91143 -5.67582 -1.10017 -16.628 -6.33814 -7.27525
90 30 2 5.37426 -5.06143 -0.936524 -0.365069 -5.83445 4.83036
303 101 2 1.08214 -0.83829 -1.61006 -9.0107 9.06349 -5.9975
98 33 2 1.07758 -5.11216 1.6407 11.8945 -9.71033 -2.96214
97 33 1 1.34613 -5.99669 2.11218 9.84522 -1.04458 -7.16175
301 101 1 1.44803 -0.649914 -2.55131 25.9691 -19.9113 5.99607
276 92 2 3.34326 -0.688818 -1.97572 -0.0409434 -4.68202 -1.55056
275 92 2 4.2565 -0.302179 -0.668786 5.99458 9.51728 14.4314
274 92 1 4.21426 -0.903776 -1.4731 -12.3199 -4.38939 -11.7373
614 205 2 4.8272 -3.51013 1.02636 -4.51678 3.00365 9.66189
604 202 1 4.67766 -0.420025 1.36902 15.362 -1.91813 -7.51156
606 202 2 3.99188 -1.15876 1.48372 1.61146 -8.55912 3.20458
615 205 2 4.64638 -3.67699 2.7198 -1.30754 1.82936 -24.8111
613 205 1 4.19536 -3.34785 1.83897 -1.76051 -0.0848508 12.9971
635 212 2 2.44782 -4.94554 -2.7552 -5.13241 -3.28173 0.56901
599 200 2 2.34073 -3.16266 1.18502 10.2878 -3.36843 4.65668
598 200 1 1.62567 -3.62989 0.628606 13.6472 -5.2586 -38.284
600 200 2 2.01659 -3.79288 -0.335744 -9.22143 -0.0774643 24.2666
270 90 2 4.52226 -3.66102 -2.36987 3.96683 17.1424 -5.14655
47 16 2 5.02175 -2.23418 -0.540243 19.2556 -29.4756 -10.0531
48 16 2 6.50665 -3.02197 -0.860428 -17.427 2.05559 5.01017
46 16 1 5.52017 -3.17385 -0.530739 8.17568 23.3458 -0.176229
636 212 2 1.59575 -5.48498 -1.43451 -22.6757 -11.3236 -4.76118
634 212 1 2.4385 -5.02316 -1.73779 29.974 18.8502 2.21058
398 133 2 3.88241 -6.95446 0.63867 -0.668444 -3.58042 -6.37434
497 166 2 6.548 -0.0708501 1.61767 -12.8527 0.536796 -11.0989
12 4 2 6.31487 -6.7793 -0.607063 38.6773 -9.2594 -9.72124
99 33 2 2.08859 -6.5078 1.58095 -16.0568 5.20124 4.92988
213 71 2 0.585804 -0.306824 1.81298 11.5958 0.436701 9.25605
211 71 1 0.700815 -0.0290851 2.80322 -35.2831 -7.46177 -29.6025
511 171 1 6.46883 -4.54432 2.97228 -14.4983 2.52352 21.1369
296 99 2 -4.37374 5.40618 -2.18919 -14.887 -12.7038 0.729282
297 99 2 -3.14457 6.30406 -2.74139 -0.844792 -21.3514 3.32976
295 99 1 -3.39474 5.32395 -2.4606 14.7906 33.1093 -6.20498
17 6 2 -5.94019 2.48061 -2.02989 0.940426 13.9565 8.14779
646 216 1 -6.2207 5.3059 -2.0977 -22.9374 -6.09723 -22.9855
648 216 2 -6.98453 5.15258 -2.78761 21.2053 -6.1324 5.78251
373 125 1 -0.253014 1.42793 -2.99659 25.2392 16.8255 -13.6822
374 125 2 -0.651524 2.06023 -2.28953 -13.4834 -0.433873 -0.475675
20 7 2 -2.25359 4.05172 -2.08912 -11.4648 6.33104 0.903583
647 216 2 -6.65984 5.9741 -1.46545 6.23293 11.5112 14.11
261 87 2 -0.978605 0.352421 -0.171641 -5.57163 16.1556 2.05262
32 11 2 -3.73777 0.0653876 -0.840095 -3.39092 2.99271 9.25327
33 11 2 -4.92458 0.247848 -2.0334 0.636925 8.41029 4.24482
16 6 1 -5.88315 1.57706 -2.46472 0.381036 -9.85113 -0.874538
278 93 2 -3.82871 5.98437 0.86947 14.2135 -7.97701 -3.75985
277 93 1 -4.56358 5.39052 1.2208 -22.6824 30.3807 2.16458
279 93 2 -5.31068 6.0925 1.36166 4.65184 -19.3591 1.17769
168 56 2 -6.14302 2.66821 1.30761 -6.8147 -3.01351 -11.3377
167 56 2 -5.24814 3.9952 1.69166 5.21959 -9.84225 6.62303
166 56 1 -5.60583 3.08036 2.06293 9.86279 12.3281 6.86515
531 177 2 -7.1095 1.39342 0.720154 5.79596 -35.7853 4.83831
564 188 2 -2.63369 0.324138 1.83633 -4.28855 -2.5767 -7.28918
19 7 1 -1.73124 3.26379 -1.69318 9.83833 -9.33424 -20.7435
310 104 1 -0.143046 3.4462 0.712957 -3.02147 7.55912 -19.6493
21 7 2 -1.72397 3.29181 -0.693872 -0.279082 2.92839 23.127
212 71 2 -0.303601 0.274502 2.94263 24.6401 4.63789 18.1235
153 51 2 1.14113 5.77634 -1.31391 -6.72003 2.76939 -9.43371
286 96 1 3.90662 6.40294 -2.81161 5.67622 -9.5695 4.28154
152 51 2 1.40607 6.35358 0.131199 -6.13837 10.1898 2.42186
302 101 2 1.31356 0.328857 -2.7955 -13.727 7.98356 0.0877433
605 202 2 4.33427 0.429224 1.81114 -10.6272 8.55691 0.279062
529 177 1 6.93666 2.21362 0.274298 5.54458 42.288 11.8422
588 196 2 5.49624 5.15148 1.07485 15.4554 -17.9684 8.12143
231 77 2 3.59374 2.60055 -1.29779 -26.9634 -12.3808 9.08064
460 154 1 2.89427 1.46279 2.09688 20.192 9.31801 18.3214
461 154 2 2.13156 0.8781 2.44339 -15.0232 -3.99451 4.43798
151 51 1 0.676412 6.33549 -0.598696 11.239 -16.2325 1.35015
397 133 1 3.11088 6.76262 0.60058 -2.90613 4.73375 6.81962
399 133 2 3.40428 6.01349 -0.048866 7.04431 -0.255675 2.67458
462 154 2 3.36455 1.90767 2.91682 -4.70583 -1.68192 -19.4875
312 104 2 0.328613 3.69643 1.59662 5.12848 -1.75766 5.12324
311 104 2 0.0147123 4.25163 0.0923027 -4.95566 -8.31151 6.09514
329 110 2 5.08113 3.69176 2.70826 4.8705 -8.04415 19.8489
229 77 1 4.47755 2.45855 -1.77933 24.6842 -6.44324 -17.3839
230 77 2 4.34839 1.81165 -2.55426 -1.97914 -1.69906 0.680726
544 182 1 2.16783 2.20092 -0.476284 -29.9365 -7.74731 38.0511
530 177 2 6.31497 2.08038 -0.500877 -13.0061 -10.1374 -17.6022
545 182 2 2.57693 1.75292 0.369338 1.83919 9.76082 -10.4857
546 182 2 1.18699 2.34448 -0.110075 26.0043 4.29589 -21.9498
320 107 2 4.35307 3.8998 -1.22939 11.2351 -6.42795 7.12083
321 107 2 4.44518 5.39735 -1.71364 -5.74152 17.1499 0.439515
319 107 1 4.45415 4.84725 -0.840574 -0.299247 3.68336 10.9653
587 196 2 6.53552 3.79013 1.10649 -10.399 15.4055 7.83075
586 196 1 6.08368 4.53877 1.68323 -10.9505 -2.01004 -24.1221
235 79 1 1.49167 4.18993 2.60153 -12.5893 0.937284 10.3208
236 79 2 2.46725 3.96355 2.49332 10.3562 -0.649729 -3.98306
6 2 2 -1.41664 -5.38979 3.31802 17.204 3.43428 25.3272
404 135 2 -1.05751 -2.10599 4.07827 6.61649 -1.25353 3.40302
125 42 2 -5.95661 -5.47755 4.7247 -17.0822 10.6705 6.34698
124 42 1 -5.21457 -6.09988 4.4588 6.98448 -24.0317 9.06881
403 135 1 -1.87945 -2.09719 3.48629 -10.4096 4.24246 5.73145
100 34 1 -6.487 -5.5772 8.31964 15.7613 -11.4734 16.9456
102 34 2 -5.93772 -5.60798 9.20691 -18.0833 6.5345 -23.2634
101 34 2 -6.06902 -4.88743 7.66092 1.12086 0.531827 7.57972
577 193 1 -3.30726 -4.52751 5.42381 19.6177 10.5064 -4.87251
578 193 2 -2.86174 -3.98853 4.68651 7.56746 5.55917 0.0491596
579 193 2 -3.92393 -5.11108 4.86021 -12.9467 -17.7625 0.500686
400 134 1 -5.02995 -3.69214 7.15737 18.7255 22.7296 -12.8334
401 134 2 -4.23803 -4.19756 6.67641 -15.5954 9.6757 3.55493
73 25 1 -0.6171 -2.55933 8.03477 28.8075 -10.9872 -50.7019
402 134 2 -4.97962 -2.72124 6.75565 -10.983 -24.1167 7.93149
74 25 2 -0.554097 -3.53231 7.6393 -5.86916 20.1538 18.2149
245 82 2 -1.64716 -1.35215 7.1203 -6.68915 -0.0964778 4.03087
126 42 2 -5.25775 -6.89855 5.14205 0.643296 9.90904 -16.2692
425 142 2 -0.267622 -6.50792 8.77584 -11.7751 -6.77411 14.5538
424 142 1 -0.702959 -7.14663 9.4717 8.58652 0.467365 -30.1849
254 85 2 -6.11177 -1.62835 4.70487 26.317 10.2122 21.9098
253 85 1 -5.34237 -1.32322 5.36872 -21.4041 -20.2326 -10.9422
489 163 2 -1.04488 -2.18099 9.53416 1.68158 -0.758208 -1.21288
244 82 1 -2.38006 -0.799633 6.65417 7.3832 -6.4301 -3.80787
255 85 2 -5.05043 -0.365082 5.15028 -1.29914 1.09378 -9.01445
246 82 2 -2.77222 -1.41412 5.92844 -3.19938 8.31534 2.84703
527 176 2 -0.181431 -6.91465 4.74468 15.8531 16.1011 -5.83507
113 38 2 -6.16714 -2.82765 8.73291 -4.89856 -9.005 -11.7285
114 38 2 -5.26156 -1.58531 9.27224 -33.0213 -0.218006 -14.5311
112 38 1 -6.22913 -1.83917 8.95105 31.5207 17.0706 30.046
513 171 2 6.27835 -5.04663 3.88249 12.0358 8.80679 -19.5082
494 165 2 0.704968 -1.92594 5.27799 7.78819 3.51265 11.1477
495 165 2 0.825366 -1.48931 3.78623 1.07323 -10.8955 -6.58762
493 165 1 0.739349 -2.35653 4.35246 -5.41823 5.13101 -16.0216
252 84 2 1.53974 -4.17965 8.70322 -10.7254 -13.2196 -4.2681
251 84 2 2.25134 -2.7389 8.80067 9.78914 -11.1638 10.1455
160 54 1 6.98375 -1.97531 3.60178 -16.2649 -27.2917 29.837
162 54 2 6.79202 -2.99687 3.42012 7.54913 17.5654 -4.55795
96 32 2 0.66052 -5.33458 6.2736 -0.883279 1.5086 8.04273
75 25 2 0.114201 -2.03276 7.49823 -18.8906 -8.03083 19.4552
590 197 2 7.11241 -0.37253 8.17614 -4.07183 -10.2815 -5.3255
250 84 1 2.23433 -3.68308 9.2351 0.419163 20.4501 0.184821
486 162 2 0.676187 -5.68864 3.51732 4.66489 11.1317 -0.27235
272 91 2 6.125 -5.83134 6.27363 7.65479 9.52802 -10.2063
582 194 2 3.72361 -2.24957 4.5542 3.31284 -0.129345 -0.556888
580 194 1 4.60023 -1.8729 4.9246 -12.0725 14.6682 5.46581
589 197 1 6.65962 -0.0445998 7.31027 5.97499 5.51597 14.7692
484 162 1 0.325408 -5.15055 4.3418 -8.58187 -13.7618 6.33901
77 26 2 3.99133 -1.98983 8.33159 13.0386 -5.44468 3.96733
485 162 2 0.418127 -4.14123 4.16955 3.70604 5.5243 0.265501
76 26 1 3.16391 -1.43278 8.16101 -25.9795 32.4002 7.69842
294 98 2 2.86919 -5.61511 3.69385 -0.36343 2.78562 -0.282414
292 98 1 3.54201 -5.89747 4.40207 -6.44689 27.6424 -3.794
293 98 2 3.57065 -6.89159 4.35797 3.87995 -31.903 4.43662
225 75 2 5.00639 -2.59706 6.43822 12.7224 -2.45816 9.51352
224 75 2 5.80893 -1.81918 7.64141 9.22562 -19.3443 -6.26883
223 75 1 5.56541 -2.77082 7.30147 -19.6369 22.3054 -7.34092
581 194 2 4.45435 -0.872738 5.15573 3.71643 -8.65611 -4.19712
27 9 2 4.40007 -6.53179 7.43812 -9.82382 7.4018 -11.711
94 32 1 0.702031 -5.21005 7.30167 -6.86351 4.07033 -3.04722
95 32 2 1.55477 -5.64741 7.65708 10.3653 -5.90648 -6.7
273 91 2 5.97642 -4.20786 5.98399 8.77748 -1.34129 5.53946
25 9 1 3.47754 -6.05358 7.28779 -5.46968 -1.42315 18.5288
26 9 2 3.43297 -5.51848 6.42237 8.60812 -7.55992 -10.0715
161 54 2 6.227 -1.74453 4.2878 7.66922 -2.88487 -13.3001
289 97 1 5.91075 -7.10405 7.38511 26.1895 -5.03938 -2.68196
271 91 1 6.44894 -5.05564 5.65411 -10.8213 -8.86791 2.48827
464 155 2 1.85816 -0.906483 6.9914 2.69694 1.70884 -2.37986
290 97 2 6.76991 -6.60822 7.73393 -12.2444 1.36096 2.97428
463 155 1 1.13814 -0.683219 6.28455 2.75969 1.4004 21.9647
78 26 2 3.02325 -0.685395 8.88869 4.51453 -14.7138 -14.7328
633 211 2 4.54051 -4.71549 9.04687 -5.32161 -25.6886 1.65389
593 198 2 -4.94222 1.65636 3.22434 1.31544 -1.98533 -2.75403
594 198 2 -6.21347 0.881187 3.90882 16.5939 -4.29315 -5.80208
468 156 2 -2.43821 3.72395 5.23651 0.712617 6.70194 -6.85326
466 156 1 -1.99266 3.79979 4.31892 4.85469 -1.06728 7.06936
467 156 2 -1.52683 4.71288 4.28842 -2.29949 -6.54524 -2.77172
591 197 2 -6.9622 0.498212 6.91904 -1.85547 2.64489 -7.90785
592 198 1 -5.1839 0.95052 3.93232 -13.5475 14.44 7.96338
450 150 2 -6.54926 3.47149 3.41237 -6.88103 11.2097 0.444821
238 80 1 -2.97831 4.92766 6.74907 -12.8539 -44.5847 6.72388
240 80 2 -3.05211 3.94335 7.11376 0.644918 32.8936 -10.6891
239 80 2 -2.58978 5.49225 7.48454 7.1623 9.99179 8.85665
448 150 1 -6.8419 3.48934 4.40825 7.10167 -8.92937 -0.936791
449 150 2 -6.17189 2.80899 4.75692 -0.462849 1.05907 14.6435
232 78 1 -5.43959 6.02199 6.06192 34.9555 -17.496 7.93455
233 78 2 -5.93664 5.23722 5.65894 -13.2331 -1.36078 -6.6324
234 78 2 -4.48824 5.59581 6.2321 -19.0602 18.2927 -1.11423
51 17 2 -2.28928 0.695396 4.31136 -2.49474 -12.1801 1.94997
156 52 2 -5.51466 5.82514 8.41125 9.76076 -10.8486 18.2762
91 31 1 -5.54421 2.3748 7.37691 25.4365 -20.7734 -17.3637
92 31 2 -6.01264 2.7548 8.18279 -14.4054 8.24246 13.0189
93 31 2 -4.91801 1.59288 7.68299 -12.4224 10.3054 0.821138
190 64 1 -1.59704 3.64339 9.301 31.1369 23.8324 -10.4496
192 64 2 -1.3629 2.80023 8.74729 -3.36507 -6.3603 -2.22652
434 145 2 -3.55871 0.00804628 7.75759 8.42765 -7.76749 1.04448