ITEM: TIMESTEP
24000
ITEM: NUMBER OF ATOMS
648
ITEM: BOX BOUNDS pp pp pp
-7.3053002248962366e+00 7.3053002248962366e+00
-7.3053002248962366e+00 7.3053002248962366e+00
-1.6234000499769806e+01 1.6234000499769806e+01
ITEM: ATOMS id mol type x y z fx fy fz
31 11 1 -3.61553 -1.89391 -10.5029 6.51507 -0.98108 -11.5661
32 11 2 -4.00347 -2.83802 -10.3851 -7.75403 -2.28334 1.6283
33 11 2 -3.17024 -1.77061 -11.4149 4.15563 7.24869 1.77142
309 103 2 -0.404163 -2.86835 -11.5082 5.56597 4.9202 -2.3045
307 103 1 -1.10134 -3.58999 -11.3759 -3.89187 8.48949 3.79632
610 204 1 -1.79352 -0.374482 -12.1629 1.61412 10.4197 -24.4114
308 103 2 -1.90634 -3.34659 -11.9553 4.64375 -6.56555 1.16985
534 178 2 -5.92025 -5.59462 -12.4188 2.3 4.05818 3.02345
533 178 2 -7.23129 -6.40222 -13.0145 0.221494 4.78153 -4.85879
532 178 1 -6.63119 -5.58145 -13.1385 1.02015 -8.73735 2.54384
322 108 1 -7.26583 -1.35096 -12.5259 -11.0667 -4.68804 -16.894
612 204 2 -2.24613 -0.0561383 -13.0666 6.35057 -7.92233 25.0863
200 67 2 -3.75804 -0.892224 -15.5824 -0.678705 -11.6261 -6.43586
624 208 2 -1.39831 -5.65658 -13.0334 0.213756 0.378062 13.1501
622 208 1 -1.1972 -6.28328 -12.2188 -8.02598 3.18497 -24.93
623 208 2 -0.699805 -5.7657 -11.5258 8.09365 16.946 17.1214
317 106 2 -2.71356 -4.40234 -14.7721 6.42638 -1.24195 -9.03646
476 159 2 -0.0579444 -6.34994 -15.3693 -5.13963 2.25677 -2.00946
475 159 1 -0.304737 -7.1546 -15.9478 13.9971 5.94842 6.33416
45 15 2 -6.11705 -6.42923 -16.1006 12.9868 -7.26653 11.6036
194 65 2 -6.50258 -0.136916 -14.1665 -6.34378 4.75573 9.21035
43 15 1 -5.28683 -6.72813 -15.5571 -14.9982 3.73694 -10.2407
44 15 2 -5.20707 -6.09434 -14.7621 -1.20174 -0.947153 0.801538
324 108 2 -6.60065 -0.751856 -12.0205 3.57812 -2.13901 13.491
280 94 1 -5.54237 -3.77307 -9.96768 44.704 -10.4021 -23.2439
281 94 2 -5.54238 -4.79065 -9.89374 -10.1451 -2.24574 13.3311
165 55 2 -4.91213 -0.980309 -10.4864 13.038 -7.02621 -2.19115
163 55 1 -5.74092 -0.382188 -10.5323 -18.441 14.4562 8.52852
318 106 2 -1.06903 -3.92091 -14.6228 -13.1871 -10.3028 3.08126
316 106 1 -1.82815 -4.56577 -14.2849 13.8717 6.33616 7.57222
246 82 2 5.4927 -6.70614 -13.7203 0.877704 -10.3814 -12.4395
323 108 2 6.80774 -1.90491 -11.8679 1.57197 5.33438 9.54409
59 20 2 5.70992 -3.44212 -10.6517 7.11151 7.846 -2.69223
58 20 1 5.67466 -3.93199 -11.5607 8.54274 0.331275 -5.22859
60 20 2 6.35625 -3.57956 -12.2478 -4.12719 -6.08715 8.63992
245 82 2 6.57885 -7.17546 -14.9382 -16.2915 0.216885 10.2525
474 158 2 6.09841 -1.13701 -13.6412 -9.34163 7.4634 -10.9798
472 158 1 5.50778 -1.09547 -14.5018 21.7766 22.2077 28.9842
258 86 2 3.67645 -0.51065 -10.1534 30.1239 18.5627 -21.9475
196 66 1 1.87115 -6.27216 -13.9829 -3.49868 1.70095 -4.41925
198 66 2 2.04689 -6.94304 -13.2141 -5.79826 8.73535 8.82058
147 49 2 5.65514 -4.38864 -15.9327 -0.493049 -6.12937 3.93452
146 49 2 4.42673 -4.08516 -14.8215 3.40954 -4.8943 4.30334
145 49 1 5.21008 -3.69274 -15.3452 -3.7585 11.4506 -3.51862
385 129 1 3.24532 -4.99807 -10.5496 11.084 -31.1406 -0.237026
386 129 2 3.09253 -5.96577 -10.9086 -5.36691 21.1817 2.45414
387 129 2 4.25699 -4.90857 -10.3684 -12.6468 6.50244 -8.08587
473 158 2 5.70695 -1.99375 -14.9046 -8.60609 -25.7535 -17.1873
197 66 2 1.73923 -6.78943 -14.839 1.30602 0.112301 -7.94015
504 168 2 1.81216 -4.35714 -13.0444 2.37808 5.65837 -5.83694
503 168 2 2.56413 -3.35751 -11.9923 6.95454 1.2602 6.19685
502 168 1 2.26453 -3.43882 -12.9565 -13.0485 -9.6526 -0.228586
129 43 2 4.96715 -4.91593 -12.6541 -11.3644 14.5013 13.2921
127 43 1 4.39863 -5.51735 -13.2627 32.3756 -29.8598 -20.4327
456 152 2 0.784318 -2.5986 -14.1779 6.02299 -10.8467 -9.8707
174 58 2 3.46604 -0.0648034 -16.2033 -2.57177 1.36994 2.60284
413 138 2 1.3332 -7.1324 -10.8351 3.55114 13.6406 -7.62015
625 209 1 0.868457 -0.15795 -15.8085 -3.78794 12.15 -24.4672
256 86 1 2.77349 -0.576171 -9.75153 -17.2283 -20.8883 16.8074
128 43 2 3.3926 -5.42975 -13.2586 -14.1573 9.35782 4.68043
454 152 1 0.328702 -3.04943 -14.9899 -24.0422 17.043 17.0881
455 152 2 0.988244 -3.40522 -15.6529 17.6914 -8.69088 -9.88949
626 209 2 0.166601 -0.855219 -15.5966 -1.20524 -9.24644 4.47708
611 204 2 -0.887678 0.110994 -11.9866 -10.8035 -11.5778 2.53418
141 47 2 -3.1841 5.63663 -13.8284 12.934 -3.03767 5.33836
477 159 2 -1.09919 6.99454 -15.5171 -6.74416 -4.65107 4.9429
139 47 1 -3.97151 5.01152 -14.0482 -0.740853 9.6645 -1.80916
140 47 2 -4.58113 5.63412 -14.5711 -5.99894 -0.114884 -6.15445
642 214 2 -2.89653 3.68004 -14.4474 -0.396049 -17.1383 -7.39905
641 214 2 -1.50084 2.8078 -14.8249 8.32945 -1.03562 8.55854
640 214 1 -2.52221 2.7622 -14.7896 -9.24955 19.1348 1.78431
207 69 2 -4.43018 0.396282 -14.074 12.0804 5.17695 2.76253
522 174 2 -0.845016 3.8455 -10.7516 -8.10637 -12.2105 -12.1933
520 174 1 -1.32791 4.31939 -9.98314 13.5594 1.90938 0.0929628
205 69 1 -3.39231 0.372228 -14.1732 -12.0203 4.8799 -11.2237
206 69 2 -3.08039 1.34647 -14.4271 -3.86494 -11.1504 3.01797
617 206 2 -2.48231 2.75013 -9.8271 2.56876 7.5916 1.2545
143 48 2 -6.07652 2.14497 -15.1873 4.02098 -13.8424 1.61554
193 65 1 -6.13158 0.807607 -14.0066 7.72581 6.56432 -6.15891
195 65 2 -6.60713 1.31887 -13.2341 -2.03695 -8.13263 -6.21148
422 141 2 -7.0774 5.22714 -11.8502 -16.5798 5.29405 1.166
105 35 2 -4.8193 4.17184 -11.1263 -7.59525 3.07827 -9.4068
104 35 2 -4.86837 4.4455 -12.8112 -9.19813 -2.11177 21.4829
103 35 1 -5.44455 4.26734 -11.9415 12.2089 0.362139 -7.50233
618 206 2 -2.136 1.40241 -10.7228 -2.7514 -4.49974 7.56505
616 206 1 -2.36811 1.74092 -9.78382 2.96298 -12.0536 -9.62933
144 48 2 -6.39917 3.71576 -15.1764 2.72656 -1.03666 -7.00915
142 48 1 -6.18402 2.94588 -15.8142 -12.6143 12.213 5.70684
585 195 2 -0.792138 5.72227 -13.2117 1.42043 -9.8315 -0.828842
583 195 1 -1.54437 6.28704 -13.5751 0.858482 4.50294 0.158948
584 195 2 -1.40879 7.18585 -13.0046 -11.5679 -17.6222 -9.92228
471 157 2 -6.76736 2.94182 -11.8753 -1.42115 17.1788 6.99678
226 76 1 0.475472 0.4837 -10.9157 8.61542 6.29749 2.84355
227 76 2 1.37938 0.138305 -10.5554 2.17064 -7.6699 0.61032
244 82 1 6.02185 7.09332 -14.1262 2.77335 6.01088 4.80496
382 128 1 5.60458 0.507826 -10.2582 -0.370516 -21.6824 -5.44862
383 128 2 5.98179 0.928921 -11.0937 3.34856 -2.73024 -12.0486
421 141 1 6.55998 5.57368 -11.6742 -2.39707 -4.76927 -12.0892
423 141 2 6.00983 5.68587 -12.5511 20.1622 2.60325 10.0588
430 144 1 0.286611 3.07591 -11.7346 15.9466 -3.28063 -32.5071
228 76 2 0.605285 1.4986 -11.0517 -7.73118 -2.53779 -3.04043
431 144 2 0.461995 2.74002 -12.7198 -14.0399 5.96358 22.8705
639 213 2 3.06417 4.55643 -12.3569 -21.3702 3.10824 13.9373
638 213 2 3.30747 4.66597 -10.7692 -6.62275 2.22206 11.0429
432 144 2 1.09638 3.6803 -11.5151 2.53462 -0.00352853 2.06911
540 180 2 4.09539 5.64226 -14.3192 -10.1687 -6.03473 -1.8202
538 180 1 3.40806 4.90792 -14.0786 10.0816 1.12776 8.83604
539 180 2 2.48079 5.04959 -14.4721 2.79697 3.9154 -6.30649
469 157 1 7.04446 2.47308 -12.3045 9.84454 -34.1441 -18.6672
173 58 2 4.99575 0.0628163 -15.5975 -4.6631 -13.537 5.18631
335 112 2 4.8657 1.38129 -13.8508 -9.34978 -3.47837 9.37114
334 112 1 4.15833 1.72224 -13.1907 7.56772 14.3388 -12.6697
336 112 2 3.59905 2.44061 -13.6578 2.62386 -7.48902 5.03861
470 157 2 6.10052 2.75183 -12.1008 -8.53411 14.3402 8.67647
637 213 1 2.53176 4.63046 -11.4495 23.9099 -8.79625 -23.9402
412 138 1 1.95842 7.20777 -11.6191 -10.2706 -39.0743 32.1911
414 138 2 1.99673 6.162 -11.4383 10.494 26.7361 -15.2835
395 132 2 0.0761733 1.4901 -15.0806 7.57499 -8.43789 8.24485
394 132 1 0.170386 2.38876 -14.5956 -0.0563396 3.01493 -7.72073
396 132 2 0.614913 2.99347 -15.2928 1.13212 8.96299 0.860028
20 7 2 6.88179 5.86991 -9.86554 16.7954 -4.23608 3.20508
90 30 2 5.10612 5.78965 -10.4136 4.79811 0.827028 -1.28411
282 94 2 -6.35857 -3.28338 -9.71752 -34.7146 7.17547 13.3982
83 28 2 -0.511182 -3.16914 -8.02937 9.8477 -12.0903 3.7284
82 28 1 -0.245127 -3.90121 -8.72149 -17.9027 11.4998 -14.0733
84 28 2 -0.657687 -3.58245 -9.62739 9.20181 -14.2423 10.5472
81 27 2 -0.0223312 -5.74416 -9.01367 4.98392 -23.3548 -1.67658
554 185 2 -6.22643 -7.21129 -8.58532 -1.15039 -17.8765 -12.6198
555 185 2 -6.03379 -5.94948 -7.62 -0.536564 21.5466 10.2081
553 185 1 -5.64948 -6.3861 -8.44993 11.7341 -2.19671 -10.7559
171 57 2 -2.25736 -1.26888 -7.79539 -4.37741 0.9493 0.970382
123 41 2 -4.82983 -3.48469 -6.5721 -7.12183 -3.63372 -6.1879
121 41 1 -3.81873 -3.60525 -6.51865 11.5094 -6.86914 17.5652
122 41 2 -3.31094 -2.84328 -6.97219 -4.79393 4.91649 -13.8318
594 198 2 -3.71023 -6.14075 -7.99706 10.4621 -13.6084 1.88092
593 198 2 -2.12354 -5.69906 -8.04829 5.36029 7.64576 -2.48327
592 198 1 -2.73612 -6.46587 -7.82995 -14.2884 2.67439 3.05808
269 90 2 -6.9156 -3.65242 -7.02734 -1.46984 0.142656 3.39036
169 57 1 -3.25938 -1.3816 -7.989 20.5192 12.9228 20.0531
87 29 2 -4.8989 -1.57199 -6.88343 -9.1514 2.95446 -6.99742
180 60 2 -6.71123 -1.66133 -5.33467 23.5884 1.80026 -12.6361
178 60 1 -7.18967 -1.65853 -4.44236 -50.618 -9.74775 14.9812
85 29 1 -5.92415 -1.6608 -6.80458 11.4895 -21.4701 8.82367
170 57 2 -3.32462 -1.22507 -9.01052 -7.61594 -10.4216 -1.79316
268 90 1 -6.69863 -4.61841 -6.77603 -0.598515 -0.366679 2.94716
152 51 2 -3.72499 -2.70721 -4.89604 -14.0447 -16.424 -5.0512
153 51 2 -2.68486 -1.75941 -4.27147 19.6781 20.9344 5.07961
151 51 1 -3.45033 -2.33605 -3.99442 0.068129 -3.23179 4.4878
363 121 2 -0.0437929 -3.23689 -5.89109 -14.6367 4.40803 -22.4946
361 121 1 -0.460755 -2.45666 -6.47795 13.7587 7.01909 26.6437
39 13 2 -1.98356 -4.35952 -4.38789 1.26189 -2.21663 3.2978
38 13 2 -2.76648 -4.87289 -5.70364 -11.9284 0.688055 -10.4996
37 13 1 -2.21226 -5.19485 -4.91622 7.63679 -1.00116 12.0281
350 117 2 -0.11713 -5.45481 -5.3216 -4.69845 4.71409 -0.0161459
86 29 2 -6.33489 -0.849302 -7.27317 1.61893 12.878 -5.63976
164 55 2 -5.94098 -0.0538009 -9.5726 -0.859087 1.64966 -6.60339
179 60 2 -6.64345 -1.45808 -3.60368 20.1785 11.9533 -1.52159
492 164 2 5.35381 -2.3799 -8.67642 -2.23375 7.85562 -0.270339
490 164 1 6.10581 -2.3224 -9.38361 8.50671 -12.7705 -2.36599
491 164 2 6.61714 -1.44186 -9.30467 -7.44047 3.08016 -0.849017
79 27 1 0.466049 -6.60875 -9.35107 19.1688 44.0953 -23.7927
257 86 2 2.96959 -1.42609 -9.18523 -11.0275 15.367 3.34757
99 33 2 3.2996 -3.05824 -8.01995 12.9975 9.88085 6.79814
235 79 1 2.62123 -4.6126 -7.89875 -9.61543 0.91819 17.4365
362 121 2 0.0353742 -1.62404 -6.11288 -9.98862 -3.16068 -9.46257
237 79 2 2.63168 -5.17541 -8.74215 8.15296 -1.36361 -17.1661
236 79 2 1.6219 -4.52662 -7.72158 -5.84431 8.18564 -1.35939
450 150 2 5.35106 -3.96818 -4.41938 4.28959 -1.71212 5.04284
448 150 1 5.74887 -3.75093 -3.4947 2.54326 18.4958 -0.155804
270 90 2 7.138 -5.08908 -6.31418 -5.69828 6.15311 2.49911
601 201 1 3.06798 -1.17229 -5.65337 -5.08103 25.5568 10.0527
602 201 2 3.85908 -0.481001 -5.50265 -5.991 -21.8585 0.184175
603 201 2 2.24131 -0.610295 -5.90613 0.164762 -6.80767 10.2852
231 77 2 6.08007 -0.391873 -5.0236 10.0993 -5.8375 5.26747
449 150 2 6.26929 -2.84764 -3.5446 -4.57588 -17.7299 -7.09686
525 175 2 0.410393 -1.29515 -3.91464 -2.41066 11.2447 -15.8483
351 117 2 1.41018 -5.00317 -5.9103 -22.238 2.82599 15.8841
349 117 1 0.500066 -4.66162 -5.52028 30.3792 -7.67467 -5.70586
98 33 2 3.55411 -1.87334 -6.88545 2.68252 4.35358 1.02171
97 33 1 3.82686 -2.16596 -7.84746 -7.59188 -31.9723 -20.6907
463 155 1 0.518987 -0.0701284 -5.50101 4.84131 -10.1361 -9.64711
599 200 2 3.76353 -4.97599 -6.5941 -6.784 2.06228 -6.89557
598 200 1 4.3953 -5.04698 -5.79766 6.9897 -0.297876 23.4534
600 200 2 3.8553 -5.11117 -4.89818 3.83957 -0.553007 -15.6272
209 70 2 1.00236 -7.22014 -6.62175 13.5491 -1.19812 7.40402
208 70 1 1.74476 -7.10547 -5.9113 -13.7938 -6.76609 -6.93975
446 149 2 1.97538 -2.26748 -3.29493 1.21759 -2.08564 16.7529
447 149 2 3.4886 -1.76789 -3.58876 -2.86047 -14.5108 5.04087
117 39 2 7.10224 -7.22118 -4.04155 -12.1234 -13.4381 0.638137
644 215 2 1.89232 -4.99949 -3.42794 -13.8736 -3.56582 -0.453885
643 215 1 2.88212 -4.93461 -3.57532 13.8939 -4.8695 0.740351
521 174 2 -0.482565 4.72339 -9.57753 -9.80545 10.6292 18.508
299 100 2 -1.72213 7.06117 -6.49963 -17.6794 12.6495 -2.40865
621 207 2 -0.194784 0.119526 -9.3049 -1.01397 6.61258 33.7276
298 100 1 -1.09381 6.48036 -5.95106 6.39774 -10.313 4.1596
619 207 1 -0.353807 0.335298 -8.27747 14.2585 -21.1484 -27.088
620 207 2 -0.89726 1.18006 -8.30416 -12.9417 13.8134 -0.859466
13 5 1 -1.9556 0.38825 -4.64553 -7.45121 -15.2996 -22.2108
15 5 2 -2.50235 0.359962 -5.51957 4.37485 1.80601 13.1516
300 100 2 -1.46266 6.30302 -4.99241 -0.397136 4.48499 -2.03063
14 5 2 -2.02822 1.32411 -4.25448 -0.578636 14.5988 7.56207
254 85 2 -5.46706 0.875726 -4.19647 -4.70008 -4.94355 -0.21373
366 122 2 -0.372294 5.82088 -7.11896 12.6216 -2.50572 -1.76662
570 190 2 -1.94588 4.08249 -8.28314 5.93999 5.24194 3.04075
568 190 1 -2.07348 3.90995 -7.27427 -16.5623 -15.721 -2.34834
67 23 1 -4.46492 2.84364 -8.33776 -10.0014 -29.5963 12.151
569 190 2 -1.6241 4.61618 -6.70675 3.58698 7.37769 -0.0161622
68 23 2 -4.24718 1.83552 -8.4607 -0.512091 21.75 -10.8843
69 23 2 -3.70916 3.17124 -7.74125 12.2174 13.4896 3.61771
478 160 1 -6.99794 3.73194 -7.65558 20.1344 5.5644 37.7345
479 160 2 -5.97134 3.57784 -7.70103 -4.85511 -3.91859 -15.9227
480 160 2 -7.14198 3.94171 -6.64866 -6.70472 -6.37976 -15.8079
561 187 2 -2.26463 3.87024 -4.34698 -0.706528 6.88777 6.06408
21 7 2 -7.08269 5.11993 -8.45401 2.30771 3.93671 -13.2417
19 7 1 -7.01847 5.92368 -9.1164 -13.5774 6.18189 7.16074
253 85 1 -5.74067 1.29479 -5.08916 12.9434 -12.693 -7.54433
255 85 2 -6.12782 2.21 -4.93385 -9.10871 16.4835 7.95999
559 187 1 -1.95571 3.06947 -3.79855 -5.51785 -22.2338 -3.64698
634 212 1 -1.65671 5.84002 -3.42417 -11.6117 9.1328 -10.7702
35 12 2 -0.315174 2.76406 -4.14026 0.778646 -4.62195 15.3547
464 155 2 -0.407869 0.185497 -5.1021 2.43368 3.1259 -2.95076
135 45 2 -5.78459 1.26401 -7.6372 -5.72339 -0.226038 4.06227
133 45 1 -6.44009 0.585053 -8.03533 -20.1231 10.676 -7.50376
91 31 1 -7.04563 3.71551 -4.36623 10.7059 4.00325 -23.2758
92 31 2 -6.62899 4.64027 -4.22998 -5.34265 -2.13892 8.74558
384 128 2 5.57436 1.25283 -9.57737 -4.7579 17.2753 12.6342
229 77 1 5.19906 0.115769 -5.09816 -5.14516 -1.60126 -0.845974
465 155 2 0.552432 0.166925 -6.50641 -10.4089 4.9882 2.62049
93 31 2 7.1458 3.31572 -3.51152 4.52064 -0.753311 17.5824
365 122 2 1.02001 4.89677 -7.53498 -7.64018 -1.383 7.70165
364 122 1 0.256555 5.48744 -7.88903 6.53836 5.43279 -17.9349
80 27 2 0.230606 7.08602 -9.03777 -20.4375 -21.3737 23.805
10 4 1 3.10489 2.00836 -7.86837 0.316823 -11.4053 -8.46668
11 4 2 3.92475 2.30932 -8.42476 -1.73371 -1.16896 8.8252
12 4 2 2.88228 1.03419 -8.13194 1.93713 13.2812 -0.271181
53 18 2 6.16874 3.16956 -4.97708 25.7002 7.12727 10.2367
230 77 2 5.36938 1.05631 -5.4526 5.26841 14.6416 -2.1824
36 12 2 1.10832 2.88584 -4.87642 6.51425 -1.7866 4.04771
54 18 2 4.71043 3.6072 -5.57023 -5.41726 4.61347 -6.34378
52 18 1 5.3837 2.85611 -5.52549 -28.0939 -16.2336 -9.91535
134 45 2 7.21228 0.980211 -8.00735 17.57 -4.98164 0.715528
283 95 1 5.559 2.79872 -8.9532 -0.0497861 -23.511 -1.54827
284 95 2 6.47995 3.01909 -8.53569 -0.749579 7.63647 8.79102
285 95 2 5.30595 3.58478 -9.53491 -8.617 18.1127 -4.19565
34 12 1 0.697833 2.60828 -3.97135 -3.95648 13.1117 -18.6272
249 83 2 2.51314 4.75638 -6.27287 2.01869 -2.6026 1.12607
247 83 1 1.95096 3.89682 -6.2842 5.78568 6.36356 -0.731832
248 83 2 2.42876 3.21602 -6.90358 -2.04121 -6.3102 -0.551832
210 70 2 1.33016 7.22523 -5.02152 3.22692 -1.04079 0.363764
89 30 2 4.65875 5.67451 -8.78261 -1.26866 3.64837 6.4497
88 30 1 4.58549 5.26059 -9.70945 -6.05554 -5.35854 -7.40815
379 127 1 4.09507 5.99671 -6.35618 6.80926 -9.36737 7.65573
380 127 2 3.49081 6.76696 -6.05398 -6.64526 5.17644 -4.79555
381 127 2 4.9471 6.03926 -5.79044 -0.930489 3.76912 -2.29057
115 39 1 6.48432 6.5614 -3.97683 8.48867 10.1014 11.2131
557 186 2 3.96512 1.84443 -3.94552 4.73302 14.3493 -15.6794
51 17 2 2.14062 5.45186 -3.26784 5.10876 -7.4839 1.51778
341 114 2 -3.91568 -5.49372 -2.93747 7.37187 2.21117 -9.22516
340 114 1 -4.76074 -5.79422 -2.47628 -4.58499 -12.451 10.3863
342 114 2 -4.52777 -6.61402 -1.89483 1.49057 5.91813 -8.49337
563 188 2 -2.56404 -0.036735 3.18018 4.7663 9.08491 -5.96002
260 87 2 -3.03543 -1.71892 -0.632376 6.24789 -3.79901 -9.79941
259 87 1 -3.57926 -2.36443 -1.23607 1.89252 3.60792 -7.05832
261 87 2 -3.37365 -2.35142 -2.26322 2.87738 0.923633 19.5499
321 107 2 -6.31325 -5.17978 2.04223 -7.43456 -0.836198 7.30036
320 107 2 -6.43042 -4.92061 0.485486 -23.8168 5.26949 8.18543
319 107 1 -7.03461 -5.08591 1.33158 34.1246 -4.79015 -10.9214
648 216 2 -1.92354 -0.221672 1.15748 -0.544708 -14.9852 -5.39442
374 125 2 -5.41477 -4.54861 -1.55181 2.43772 -5.09946 -1.25755
375 125 2 -4.75268 -3.3388 -0.619097 -2.38682 -2.66385 -10.6691
373 125 1 -5.57059 -3.98046 -0.703795 -5.77185 0.996044 12.6281
367 123 1 -5.429 -0.514712 -2.71606 11.0238 15.1624 13.6295
347 116 2 -0.150589 -6.13166 -0.33572 0.263066 3.80619 -2.17367
368 123 2 -4.67694 -1.20302 -2.68862 -2.95977 -5.85015 -5.68107
17 6 2 -6.72681 -7.27234 2.20998 -7.92444 4.91526 1.85356
576 192 2 -5.83167 -0.892473 2.88287 3.16078 -19.2663 -1.94644
575 192 2 -5.93133 -1.98459 1.64821 4.95359 -1.08951 9.50703
574 192 1 -5.53444 -1.84536 2.59937 -8.07459 20.7794 -0.893285
505 169 1 -7.16891 -2.04472 0.316022 -7.31607 21.7829 16.8709
646 216 1 -1.73046 -0.928812 0.413177 6.14585 21.2053 5.3939
506 169 2 -6.73689 -2.75093 -0.277234 7.14991 -16.2645 -6.4396
346 116 1 -0.59164 -7.00005 0.0143743 -6.02022 -1.78464 0.203588
573 191 2 -0.346149 -7.09674 3.09274 -0.755406 -15.6448 -1.69103
647 216 2 -0.739516 -0.701751 0.199516 -3.44355 -9.59112 -2.97558
62 21 2 5.45813 -4.29592 -1.88918 6.54608 -16.425 1.63365
63 21 2 5.77554 -5.7799 -1.011 -0.925781 11.1338 -10.5686
61 21 1 5.34533 -4.8324 -0.996829 -10.7093 1.03876 -7.53909
302 101 2 6.27689 -7.2735 0.123232 -0.00721131 0.509281 -19.488
96 32 2 5.61632 -4.48726 1.62707 3.97717 12.6793 3.46786
296 99 2 1.78617 -5.36054 -0.674823 2.78069 -9.16843 3.15163
524 175 2 0.268118 -1.18586 -2.26998 2.81177 -13.8793 -11.478
523 175 1 0.517549 -1.81384 -3.05867 -24.0925 11.2562 21.5026
507 169 2 6.80478 -2.4673 1.00517 -1.93328 -6.43524 -7.6185
95 32 2 5.08948 -3.8634 0.313405 3.03417 -3.21896 -12.0839
94 32 1 5.19271 -3.60582 1.29964 -7.8064 -11.7718 1.30549
549 183 2 3.14132 -2.02976 -1.45149 4.59847 2.89914 5.84464
548 183 2 3.89785 -2.20737 0.0507159 10.0198 -7.08701 8.47845
547 183 1 3.26689 -1.64201 -0.487109 -13.9502 7.54042 -8.21016
445 149 1 2.95536 -2.37589 -2.943 24.5234 12.2243 -22.8078
159 53 2 1.6847 -3.95871 1.48002 7.58527 0.0503202 -17.5902
157 53 1 0.87656 -4.15623 2.0373 -3.18183 6.84429 21.0161
158 53 2 0.0731445 -4.5742 1.58478 3.27623 -2.23097 -14.8362
297 99 2 0.917301 -4.20943 -1.60492 0.393569 -5.75229 8.07494
295 99 1 0.859692 -5.04736 -1.01653 -19.0528 23.2598 -14.7576
329 110 2 4.89463 -2.5323 2.45189 13.308 -9.4061 0.91456
645 215 2 3.20158 -4.03122 -3.1831 -1.60725 -0.0231473 -4.11633
499 167 1 0.892509 -0.29145 -0.0944333 -10.0001 13.5529 -6.07831
500 167 2 1.68811 -0.833497 -0.416067 15.292 -13.8626 5.04289
536 179 2 7.20509 -0.52977 -0.241112 -0.247203 14.9339 -8.21447
56 19 2 3.48514 -7.07823 -0.0831619 -22.2581 23.6674 5.25011
55 19 1 2.97827 -6.16464 -0.140318 48.8666 -18.573 -13.0035
57 19 2 3.66426 -5.56503 -0.644916 -7.84227 -5.01251 10.3802
4 2 1 2.90476 -0.0990379 2.86173 16.7958 16.6612 -19.614
314 105 2 5.08983 -6.47314 3.16439 -6.89305 -0.0349389 9.63704
560 187 2 -2.59586 2.94104 -2.99619 -0.0713595 9.55249 -1.1944
562 188 1 -2.04896 0.620216 2.56632 -10.6946 -2.54388 -3.84232
369 123 2 -5.20879 0.0952004 -1.89679 -7.15252 -10.5345 -8.79757
418 140 1 -4.76313 0.727565 -0.408567 -11.0412 5.16874 -25.9267
419 140 2 -5.76686 0.94336 -0.329394 -0.433968 -3.79158 4.97816
636 212 2 -2.26604 6.29966 -2.71288 11.5699 -7.13619 1.27471
420 140 2 -4.26238 0.845682 0.447565 7.74072 3.74935 21.0952
564 188 2 -2.60796 1.46244 2.29778 7.76225 -9.92027 8.83924
287 96 2 -4.4384 3.36104 1.40109 12.2177 -3.04109 -1.83128
545 182 2 -5.7468 4.66223 0.283663 -6.50496 6.67648 4.56119
372 124 2 -3.7339 6.03359 -0.781974 5.36885 3.82233 -8.9473
565 189 1 -3.96052 3.10464 -1.70985 14.2047 -0.865016 -18.7037
566 189 2 -4.03511 2.15908 -1.30441 -8.21564 11.0342 8.74806
370 124 1 -3.12597 6.69769 -1.29664 -9.37767 -1.3002 18.0668
544 182 1 -4.74224 4.87675 0.231556 10.7554 -1.36165 -18.313
546 182 2 -4.35815 5.27533 1.09426 -13.5939 0.179603 11.2375
371 124 2 -2.45798 7.07948 -0.611267 3.41296 -0.0611173 -7.86966
286 96 1 -3.77141 2.68418 1.80001 -24.29 -2.69848 16.5031
288 96 2 -4.14447 2.49972 2.76125 13.8967 -2.22811 -13.5792
567 189 2 -4.1996 3.92726 -1.12747 -2.81462 -15.9672 6.49462
232 78 1 -4.96886 5.42417 2.91182 -16.094 11.2517 30.3982
233 78 2 -5.83027 5.95371 2.66399 14.6218 -14.017 3.18931
572 191 2 -0.746378 7.02275 1.56257 -0.622654 -5.88906 12.0593
571 191 1 -0.791291 6.73267 2.56544 1.32546 16.9387 -8.78551
635 212 2 -0.656042 5.81513 -3.20357 1.74352 0.820143 9.89091
399 133 2 -0.0642802 4.7501 0.0968094 -2.38381 1.24692 10.6607
353 118 2 -2.08701 4.97934 1.38798 -3.88566 -3.88966 5.91054
352 118 1 -1.63309 4.39023 0.700253 20.8484 9.8118 -15.0108
354 118 2 -2.12751 3.56012 0.397657 -11.4799 -3.77108 8.01065
116 39 2 6.20043 6.45229 -2.9913 2.70854 5.97111 -11.9172
301 101 1 6.09755 7.07906 -0.870838 1.44113 -3.30517 26.4674
16 6 1 7.22392 6.61083 1.91575 -2.17705 7.90608 17.5483
18 6 2 6.34564 6.66752 2.46769 2.72727 6.73696 -4.13555
535 179 1 6.9545 0.47451 -0.44369 32.641 -24.8257 1.46924
306 102 2 5.63528 2.99044 -1.90764 -4.40307 -2.67263 2.02328
305 102 2 6.74313 1.77419 -1.63967 2.55039 -9.87447 6.0407
303 101 2 6.22626 6.06373 -0.848732 2.00001 0.897589 -2.74613
304 102 1 6.53302 2.61464 -2.18254 3.39519 12.0453 -8.37966
167 56 2 4.28479 1.19782 -0.844879 -2.04584 -10.8053 -11.0532
348 116 2 0.0169251 6.88521 -0.355064 3.21847 -10.0017 0.917192
558 186 2 3.9936 0.473157 -3.18354 3.3608 16.1123 8.22473
311 104 2 1.32693 2.32324 -2.45403 -24.3403 2.26386 -9.52255
310 104 1 1.72807 2.3259 -1.51613 6.25513 -1.07326 1.98074
168 56 2 4.24803 2.3914 0.242381 -2.64521 -2.42685 6.84671
556 186 1 3.90365 1.4892 -3.01106 -8.86287 -26.0525 16.6707
110 37 2 6.77675 5.34419 1.08933 10.9533 2.31455 3.17329
109 37 1 6.96671 4.56647 0.435135 5.8849 -7.32724 -20.674
111 37 2 6.4134 3.76082 0.657557 -9.12622 -10.345 4.51153
312 104 2 2.67039 2.14229 -1.8463 13.6794 -3.5644 6.51097
501 167 2 1.1653 0.681856 -0.243721 -5.22526 4.36851 -0.67528
49 17 1 1.14779 5.29305 -3.17618 -22.249 -1.34158 -3.17462
50 17 2 0.827885 4.30398 -3.22167 14.6914 11.401 -2.83021
439 147 1 3.68609 4.1646 0.715841 -8.38678 7.38313 -4.05061
440 147 2 3.91692 4.34525 1.69309 -3.17593 -0.461452 -2.47744
313 105 1 4.67794 7.29721 2.75219 -6.24908 -10.3907 -4.90958
537 179 2 6.10959 0.598475 0.0943506 -21.2739 11.0214 2.14726
397 133 1 0.92916 4.82993 -0.163454 -1.79099 1.21424 -3.15152
166 56 1 4.55402 1.41435 0.10375 -6.94413 21.8914 9.05
398 133 2 1.0529 4.06312 -0.823557 8.97398 -4.68891 -0.317461
101 34 2 5.1612 1.59876 1.96961 -1.6867 4.18574 3.24158
6 2 2 2.74149 0.345191 1.93939 -0.380391 -14.4664 13.4991
102 34 2 3.96768 1.4359 3.05506 11.5866 4.34922 3.28017
441 147 2 2.80818 4.67375 0.467885 10.425 -13.1006 3.39891
100 34 1 4.80008 2.01131 2.83651 -9.22565 -4.97804 -1.36102
604 202 1 -3.09367 -1.42315 4.27493 -17.1375 -9.1626 -13.0167
605 202 2 -3.95299 -1.69677 3.74526 15.5865 3.57398 7.0266
606 202 2 -2.59668 -2.28531 4.54396 -2.42465 9.28029 -0.117145
410 137 2 -0.255106 -4.78064 3.86143 -14.0269 15.116 -1.0875
409 137 1 -0.966442 -4.0359 4.07209 -5.7866 -5.01013 10.9064
496 166 1 -5.64909 -6.43906 3.95922 -15.9476 -25.7466 -29.0429
497 166 2 -6.09161 -5.61794 4.3541 4.191 18.2236 13.2835
579 193 2 -0.506224 -0.455063 3.5253 -2.03454 -1.22219 -21.1691
411 137 2 -0.981459 -3.30856 3.35933 8.57349 -5.78496 -2.46001
1 1 1 -2.26126 -5.94422 9.72816 -18.5176 -15.9779 -7.73769
498 166 2 -4.69864 -6.56165 4.25547 13.2643 0.502803 8.28805
509 170 2 -0.920541 -5.20393 5.96876 5.56012 3.64323 3.97119
508 170 1 -0.941501 -5.03065 6.98143 -24.3687 8.81562 -14.5232
3 1 2 -2.81584 -5.81011 8.85294 11.6305 10.7606 12.2603
41 14 2 -2.61554 -5.45268 7.12327 11.5141 10.2384 -7.53906
42 14 2 -3.86273 -4.38704 7.50495 6.00294 4.09846 1.00616
325 109 1 -6.01125 -3.93631 4.73055 -9.26578 -12.8689 7.72977
358 120 1 -0.979316 -2.20931 7.94299 15.6217 -2.57059 8.9965
326 109 2 -5.45098 -3.4675 5.4348 0.361385 5.05141 -2.53594
40 14 1 -3.58903 -5.37788 7.42067 -19.5875 -10.8678 9.77912
510 170 2 -0.318237 -5.66843 7.54799 2.41358 8.68897 -6.45135
138 46 2 -4.51203 -1.97247 8.11265 -4.08801 -10.5879 0.468977
137 46 2 -2.83435 -2.11298 8.21121 -16.4554 -18.7544 -11.7185
136 46 1 -3.72479 -2.63405 8.02132 24.0295 16.5849 1.83784
72 24 2 -1.1218 -0.998106 9.49469 -33.3534 14.5612 -6.00622
114 38 2 -5.53858 -6.54498 7.44568 -7.2341 -8.14945 -8.12426
113 38 2 -6.83208 -6.06979 8.19005 -5.91677 6.84168 13.0511
112 38 1 -6.54298 -6.76344 7.51506 21.3853 3.98082 -2.75096
327 109 2 -6.05632 -3.44773 3.84395 4.21087 16.7518 -6.18351
434 145 2 -7.13516 -1.47986 8.73149 -2.57523 -4.29161 13.794
435 145 2 -6.38312 -1.79667 7.36602 5.03388 1.06713 6.78065
433 145 1 -6.19565 -1.69421 8.37108 3.33797 7.31648 -25.1075
360 120 2 -0.0345525 -2.23107 8.38233 -6.36527 1.0095 -1.32395
359 120 2 -1.20612 -3.18989 7.77008 -1.28916 -4.67091 -10.1592
70 24 1 -1.87924 -0.290551 9.68475 -2.65745 -16.4882 1.78039
71 24 2 -2.86954 -0.554894 9.45885 34.343 2.3123 5.59842
279 93 2 2.99792 -3.14722 5.88682 1.15359 3.0726 0.529301
277 93 1 2.69306 -3.36357 4.94451 12.2335 -12.1481 6.95071
278 93 2 1.74042 -3.07895 4.81204 -13.3549 6.36362 -6.0239
332 111 2 6.21204 -1.70327 4.60432 -12.6702 -5.63877 -7.09782
330 110 2 4.37802 -1.26404 3.28725 2.5707 0.203877 3.4333
328 110 1 5.15895 -1.93444 3.2529 -11.8105 19.707 7.39957
276 92 2 1.76139 -0.0247389 5.83978 -17.511 -1.46683 -17.0029
486 162 2 1.45429 -5.44413 3.49302 -31.8311 -22.0762 1.50141
462 154 2 7.20903 -0.00546092 5.15644 7.19795 -5.6475 -6.28312
484 162 1 0.730429 -6.07975 3.93907 41.204 24.8329 6.56631
407 136 2 0.232947 -6.81616 9.25846 1.83378 0.544695 4.2065
577 193 1 0.213106 -0.344638 4.22077 10.0709 -5.77925 2.76086
150 50 2 5.36832 -6.56306 6.0235 -9.35679 4.91173 24.0772
274 92 1 1.71848 -0.22191 6.82853 25.8765 5.31146 20.8361
275 92 2 0.83048 -0.497369 7.22765 -12.4918 -1.20869 -7.18897
149 50 2 6.53188 -6.78371 7.08375 -17.0683 5.11114 12.3996
333 111 2 6.00171 -2.03643 6.25981 -4.35339 5.95657 -9.76493
331 111 1 6.59526 -1.5971 5.55076 13.8276 2.8362 17.7934
5 2 2 2.04775 -0.111623 3.39385 -19.8355 -4.84774 5.94754
400 134 1 6.06489 -1.71867 9.52326 0.272634 -4.94922 -1.4435
428 143 2 3.19254 -0.780937 7.09414 -1.67469 -5.38332 -1.6292
429 143 2 3.97143 -1.9822 7.92462 -6.58709 -14.7672 2.51876
401 134 2 5.18315 -1.39907 9.11592 2.95172 7.5376 8.66883
427 143 1 4.11229 -1.23618 7.26053 5.4506 7.87648 5.2281
408 136 2 1.55249 -6.56715 8.29082 4.93678 -1.46234 3.34857
406 136 1 0.5832 -6.27456 8.46485 14.7329 -17.9165 12.8118
417 139 2 4.34366 -4.23944 9.42122 -16.8767 -1.50261 -17.4925
531 177 2 6.35157 -4.79317 4.52093 8.36157 11.1587 0.122986
415 139 1 3.58959 -4.16661 8.70068 17.1386 -3.24677 15.8713
148 50 1 5.48123 -6.69529 7.06394 30.2493 -12.367 -34.0733
530 177 2 4.72243 -4.75573 4.92429 -4.22454 7.57557 -2.21224
529 177 1 5.53127 -5.34002 4.73314 -5.01708 -13.1367 -7.96963
416 139 2 3.33226 -5.12642 8.42675 3.41076 3.688 3.58775
214 72 1 3.3586 -7.04272 8.49826 -3.77727 1.10791 -4.21397
215 72 2 4.21901 -6.9015 7.92424 -2.14883 11.2407 -3.68083
485 162 2 1.11169 -6.19788 4.87884 -5.48722 -8.86757 -3.01705
106 36 1 1.26086 -2.45036 9.40751 -2.55166 -2.56129 4.04063
108 36 2 1.44733 -3.43618 9.24038 3.61436 -3.7041 -5.18146
442 148 1 -4.32264 1.42903 4.20765 7.55673 -2.28261 0.182487
444 148 2 -3.7946 0.590688 4.45411 4.64638 1.24196 -0.530499
234 78 2 -4.88132 5.47942 3.96449 7.91604 -1.81729 -33.8886
460 154 1 -6.8056 0.763528 4.80423 -7.37372 5.52961 11.5904
26 9 2 -2.88051 6.97335 8.4974 0.942745 7.93561 11.2173
443 148 2 -5.29661 1.18532 4.42769 -18.7846 -2.19424 -0.191859
578 193 2 -0.325287 0.144457 4.91173 -1.09787 16.6965 16.7298
461 154 2 -7.17827 1.57372 5.33085 -0.0725363 -1.96432 -2.95536
613 205 1 -1.26324 4.13368 4.11963 15.7526 10.7665 -5.34651
615 205 2 -2.13302 4.55293 3.79502 -0.242962 3.4186 -1.90801
614 205 2 -0.452287 4.5297 3.60325 -19.3645 -3.58645 4.98248
589 197 1 -3.66746 5.47484 5.49064 -15.8108 -30.5111 7.7226
591 197 2 -3.4128 5.90597 6.37301 6.29078 10.9764 7.70837
25 9 1 -2.80957 6.0732 8.05105 -5.04836 9.9895 -21.4216
27 9 2 -2.9013 5.29604 8.69621 1.7297 -14.4706 16.1614
405 135 2 -2.15751 0.971532 7.92683 0.165776 0.968151 17.0703
211 71 1 -4.74861 3.10504 6.25437 13.778 -4.76612 -5.84422
213 71 2 -4.59588 2.63122 5.34193 -5.03831 4.13634 3.76414
403 135 1 -3.02393 0.915055 7.39737 0.937304 -1.0572 -10.4367
590 197 2 -4.01926 4.53845 5.82537 2.12377 19.2478 -16.1038
212 71 2 -4.10251 2.60289 6.86958 -1.76183 0.949191 4.50919
218 73 2 -2.64059 3.11187 8.99494 0.795248 6.62021 11.1683
512 171 2 -1.06573 2.9815 5.29938 -0.647544 5.54956 -15.0886
404 135 2 -2.61633 0.790382 6.46766 -6.91761 3.87623 -3.66601
217 73 1 -3.04079 3.80402 9.64984 6.73911 -3.49372 6.16409
511 171 1 -1.04325 2.07824 5.77666 -0.998344 -33.8968 -3.90218
238 80 1 -5.54416 1.54646 8.49865 3.58492 -13.8214 25.2773
240 80 2 -4.69481 1.01855 8.26205 -1.11294 3.94626 -0.272473
513 171 2 -0.72354 2.2285 6.74713 -0.141464 8.9553 4.71837
239 80 2 -5.85853 2.02707 7.68372 -8.70449 12.4812 -21.8636