ITEM: TIMESTEP
26500
ITEM: NUMBER OF ATOMS
648
ITEM: BOX BOUNDS pp pp pp
-7.3848624593078762e+00 7.3848624593078762e+00
-7.3848624593078762e+00 7.3848624593078762e+00
-1.6410805465128995e+01 1.6410805465128995e+01
ITEM: ATOMS id mol type x y z fx fy fz
610 204 1 -3.06176 -1.78733 -11.162 33.8017 -0.593627 -6.3063
534 178 2 -3.31131 -2.31442 -14.4352 -13.0689 11.8558 12.1408
533 178 2 -3.81867 -2.23783 -12.7632 -3.94084 5.19416 -27.739
532 178 1 -4.11599 -2.35584 -13.7658 18.9578 -10.1048 23.1033
612 204 2 -2.20885 -2.01709 -10.5743 -25.8297 2.44044 -7.24275
611 204 2 -3.9267 -2.19495 -10.7594 -2.59597 -6.47006 5.79239
378 126 2 -1.86666 -2.92486 -12.6332 -3.75467 4.44227 4.9379
377 126 2 -1.7513 -4.35668 -13.4107 -0.635477 -5.10136 -3.02333
376 126 1 -1.29771 -3.76477 -12.7071 5.11577 3.98134 -4.76012
129 43 2 -5.34473 -3.34824 -13.6859 -2.774 -2.63011 -11.3151
520 174 1 -2.55759 -5.74883 -14.3734 4.93872 6.75164 2.94683
583 195 1 -5.07947 -6.61008 -12.3442 2.47396 12.9664 -20.1532
584 195 2 -5.79003 -7.0968 -12.8761 -5.87607 -19.0347 4.11838
394 132 1 -2.01711 -1.32915 -15.1898 13.6646 24.7041 9.81308
127 43 1 -6.16587 -3.99342 -13.7761 -7.49739 -7.0997 12.6458
128 43 2 -6.93099 -3.49786 -13.2856 4.01184 1.75842 -0.692145
170 57 2 -3.13686 -0.0627445 -11.4463 0.820887 -14.8892 3.85383
396 132 2 -1.62216 -1.17949 -16.1104 0.147606 -10.2924 -10.6805
522 174 2 -2.53426 -6.37887 -15.1696 -4.01112 -2.80855 -4.19917
322 108 1 -5.66305 -0.386403 -16.3892 -0.674489 8.58468 11.4939
324 108 2 -6.63466 -0.722168 -16.3453 6.63252 -0.529954 5.47967
585 195 2 -4.99216 -5.76709 -12.9197 9.2762 4.84483 5.07052
204 68 2 -6.82013 -4.25758 -15.4809 24.041 -6.40715 9.22704
521 174 2 -2.44161 -6.28878 -13.5212 -0.0976943 -2.23916 3.7468
59 20 2 -7.38 -5.18778 -10.2264 6.7329 -0.747126 6.84723
33 11 2 -5.16031 -4.02993 -10.1699 -12.909 24.5733 -3.32819
476 159 2 -5.40156 -5.81235 -11.0461 -15.6274 -5.28223 30.8942
475 159 1 -5.85038 -5.46976 -10.1394 24.036 -21.7104 -4.14418
31 11 1 -5.18599 -2.98292 -10.324 -0.810334 -3.59615 11.9507
135 45 2 -6.96182 -2.61942 -11.3998 -3.07791 0.0632395 -4.33295
258 86 2 -0.483308 -4.35006 -11.3528 -0.929186 -10.4922 15.2002
256 86 1 -0.149702 -4.80244 -10.4643 -11.5929 12.1509 -39.0128
123 41 2 -0.668538 -3.52982 -9.87079 -5.82081 13.8381 10.5456
395 132 2 -1.86336 -0.4046 -14.7438 -10.4195 -14.018 1.36098
356 119 2 -0.823416 -5.7678 -15.9596 -0.845067 5.12325 -3.38196
60 20 2 5.80154 -5.63835 -10.3735 -4.00673 -12.6413 5.95554
58 20 1 6.41687 -4.84609 -10.2355 -13.3346 15.0984 -12.2205
201 67 2 1.18303 -3.20407 -14.395 -7.73825 9.15548 23.9221
200 67 2 2.10649 -4.29041 -15.1745 11.1048 -2.78729 -1.95006
199 67 1 1.61828 -3.39608 -15.2689 -4.80194 3.90776 -33.3338
45 15 2 6.77126 -2.776 -16.2583 10.6575 -4.7798 6.19611
43 15 1 6.30922 -1.85537 -16.2426 -6.15117 9.35546 4.0222
81 27 2 0.983337 -6.79116 -12.4003 -1.62387 14.2529 1.3258
79 27 1 1.6996 -6.31113 -11.8474 -9.88308 -33.0953 -15.8657
317 106 2 0.883741 -1.29348 -12.7572 16.3044 12.8628 12.4858
316 106 1 1.11493 -2.24256 -12.4681 -18.8723 -6.01941 -22.3464
176 59 2 4.74456 -6.91381 -14.4438 11.3401 5.58271 -13.4647
318 106 2 0.215745 -2.70528 -12.6415 6.78996 -11.1266 11.0521
147 49 2 3.27837 -2.61517 -12.4367 -7.01695 4.11451 9.15583
146 49 2 4.96859 -2.65342 -12.2677 0.798806 1.7522 2.21146
145 49 1 4.1551 -3.01194 -12.7729 -0.165645 -5.1855 -14.9869
385 129 1 3.43607 -5.16101 -14.3538 -0.732803 3.96574 13.045
386 129 2 2.81675 -5.70979 -13.7596 -1.14582 -7.24369 0.60493
387 129 2 3.61077 -4.29932 -13.8092 8.01867 0.405727 -2.98048
257 86 2 0.650927 -5.35862 -10.7904 8.69206 -5.93127 2.99594
80 27 2 2.30737 -7.14358 -11.6347 6.92486 26.8092 10.9365
423 141 2 7.26808 -5.40073 -13.3542 -9.80708 -4.95485 -2.4954
422 141 2 5.66588 -5.14315 -13.278 -15.4848 4.84968 0.150037
421 141 1 6.35116 -5.87095 -13.3996 30.2406 3.3555 0.22403
625 209 1 4.33457 -0.833422 -14.7343 20.9535 -10.6337 -14.8123
626 209 2 5.18803 -1.06064 -15.3341 -24.2606 3.61352 20.7971
627 209 2 4.11921 -1.69726 -14.2066 2.71594 10.1498 -3.2427
133 45 1 6.93874 -2.85704 -11.9013 -8.17157 -33.0032 24.5104
134 45 2 6.56915 -3.73297 -11.393 13.7222 35.6335 -10.7253
638 213 2 6.13741 -1.42457 -10.6618 -0.0983245 0.355955 -5.75802
637 213 1 5.70165 -0.598166 -10.2614 11.2879 -16.7484 28.099
264 88 2 1.57375 -6.9205 -15.8705 -2.74394 11.1722 -10.2295
169 57 1 -2.80768 0.891369 -11.3011 3.63141 27.0612 3.88351
383 128 2 -6.1793 2.66417 -11.6717 17.4096 10.1612 7.04909
323 108 2 -5.39398 0.152548 -15.5074 -12.0561 -20.5656 -16.4213
472 158 1 -6.71666 6.60321 -14.47 17.3065 23.3893 0.214884
473 158 2 -6.24523 7.19069 -15.1684 -8.62699 -8.37399 1.00305
163 55 1 -5.25847 1.10049 -14.3175 1.73947 -0.462531 -0.950009
171 57 2 -2.95361 1.13564 -10.3008 4.70738 -5.01619 -7.31756
412 138 1 -0.77754 6.85152 -10.2714 -15.8408 0.250295 3.73971
165 55 2 -5.43941 1.23415 -13.3178 6.51243 4.87627 -6.27985
139 47 1 -3.11904 6.12703 -14.9307 -30.1598 4.45991 -14.8935
140 47 2 -3.62971 5.70942 -14.147 2.62256 -0.949967 -1.98761
227 76 2 -2.11805 1.19387 -12.9452 -5.62696 -2.07315 -4.41525
164 55 2 -4.50205 1.68774 -14.6777 -1.18946 1.25293 12.4546
226 76 1 -1.87636 1.45889 -13.9141 -2.14915 -5.11792 4.86424
228 76 2 -0.931274 1.85267 -13.9092 6.96414 0.428832 -2.21037
621 207 2 -2.0723 2.69944 -11.8115 0.0049996 4.16447 -2.46569
619 207 1 -1.88093 3.69204 -11.6366 -9.18223 -3.61279 27.2746
620 207 2 -1.4267 4.20119 -12.3624 11.3132 1.87045 -18.2026
382 128 1 -5.27869 3.1067 -11.9318 -13.4654 -6.90823 -10.2428
432 144 2 -2.77463 5.46708 -10.9576 -2.10532 -3.55114 1.80755
384 128 2 -4.59998 3.18384 -11.1699 -7.10953 -0.304193 -1.18688
430 144 1 -3.74739 5.70886 -10.7539 2.35773 -11.0575 8.33643
431 144 2 -3.96875 6.5949 -11.1569 -6.46156 20.3853 -9.19217
220 74 1 -0.679985 6.89986 -13.3117 -18.7558 -4.36779 -18.5612
221 74 2 -1.46533 6.68577 -13.9667 13.7412 0.906502 16.3685
414 138 2 -0.703239 7.14123 -11.2438 -1.26493 0.295061 -2.77266
141 47 2 -3.86262 6.32176 -15.6603 24.7896 -3.11878 14.5924
617 206 2 -6.03196 5.20412 -14.5539 -17.1696 15.8138 -1.61231
618 206 2 -5.50238 3.97221 -13.6138 -1.87967 -6.9129 -1.77098
616 206 1 -5.62042 4.27301 -14.5911 22.6516 -23.2608 3.15403
344 115 2 -6.31168 3.19857 -16.2609 10.9742 11.2246 22.6469
119 40 2 -1.86518 3.33868 -15.9498 15.0232 8.1964 -4.31339
118 40 1 -1.43318 4.27226 -16.0542 -27.8034 -23.2462 9.45711
120 40 2 -2.23622 4.86895 -15.7716 17.3161 8.78539 -1.64711
345 115 2 -6.35072 1.49966 -16.2587 10.6761 -10.1377 13.9282
68 23 2 6.26956 6.23893 -10.5079 -1.57051 4.43975 5.03173
67 23 1 6.07836 7.05305 -9.91962 -12.9957 -16.2354 -29.143
177 59 2 5.16219 6.61237 -15.6815 11.4699 14.5689 -3.87289
175 59 1 4.76347 6.88191 -14.7602 -30.8898 -19.4306 37.7618
336 112 2 5.01978 5.36124 -13.6001 -0.563287 3.34038 2.87873
474 158 2 7.28342 7.12905 -14.0589 -14.1202 1.02181 -0.730869
413 138 2 0.0826749 6.36398 -10.0152 14.407 -8.98566 -6.37689
471 157 2 4.10373 2.68538 -10.4929 -2.88589 -14.2733 8.33302
470 157 2 4.65414 3.91523 -11.3003 9.04996 17.7924 -18.2997
222 74 2 0.164623 6.83196 -13.8839 8.29604 2.14405 -1.62383
132 44 2 3.60896 2.65091 -15.7546 -2.15948 10.9023 -19.9152
130 44 1 3.88016 2.37017 -14.8412 1.89836 0.971467 19.798
639 213 2 5.4702 0.0891274 -10.9663 -13.1918 10.2348 -17.599
262 88 1 1.72343 7.36625 -14.9952 -10.9933 -7.67001 3.40988
469 157 1 4.82346 3.38039 -10.4645 2.3153 -1.59878 12.8546
131 44 2 3.77827 1.36342 -14.8376 2.87097 -10.6841 3.68838
456 152 2 0.651104 0.779378 -11.059 4.53132 0.626363 -1.55443
454 152 1 1.10059 0.61156 -11.9763 -1.21415 -4.537 1.7958
455 152 2 0.904965 1.35896 -12.6395 -1.55215 8.76941 -3.37174
194 65 2 3.36759 1.12065 -11.9686 -5.77447 -5.6938 -0.157888
198 66 2 4.40324 6.83689 -10.8151 -5.83254 -3.24439 -4.44214
174 58 2 1.35786 2.09764 -14.6674 -16.0044 6.1065 12.6121
263 88 2 2.6837 7.05462 -15.0825 12.4709 -4.84166 8.55439
193 65 1 4.28307 0.706505 -12.1146 4.04343 -0.375686 -30.2876
196 66 1 3.49234 6.64383 -11.2704 -7.55078 1.61081 7.60655
197 66 2 3.56238 6.11217 -12.1428 16.8719 -6.08041 2.54334
195 65 2 4.38016 0.425607 -13.116 -1.31318 3.16815 23.5281
334 112 1 4.68007 4.70132 -12.8872 -10.441 -8.95091 -16.6434
173 58 2 0.397654 3.44162 -14.3589 1.779 2.73871 -0.924945
172 58 1 0.669812 2.52983 -14.0008 10.4233 -10.8108 -12.4414
335 112 2 4.29912 3.89979 -13.4181 7.04056 3.15693 4.67548
379 127 1 1.34638 5.2479 -10.0052 -12.2571 8.37104 -3.94518
380 127 2 2.22289 5.6673 -10.3439 4.42033 -2.9289 7.90767
76 26 1 1.64629 1.26887 -16.3539 -8.16797 13.9079 -22.294
32 11 2 -5.59047 -2.53414 -9.45863 2.69713 -12.9323 -11.3696
477 159 2 -5.81919 -6.16306 -9.36544 -1.90493 4.57027 -15.2682
87 29 2 -7.23389 -2.602 -7.73206 0.559933 12.1292 -9.07611
85 29 1 -6.35083 -2.20982 -8.1107 -16.3744 -2.24129 10.8716
152 51 2 -4.0393 -5.627 -4.24626 4.97826 -10.9925 5.50193
153 51 2 -4.07381 -5.04101 -5.77655 -7.84419 5.64673 -4.09817
151 51 1 -3.63153 -5.74225 -5.17777 5.39274 7.11995 -4.65124
525 175 2 -2.20981 -2.42927 -8.14297 -15.3638 -17.7205 -17.3893
507 169 2 -5.83174 -3.19889 -6.98518 12.4743 -3.2857 -2.55876
636 212 2 -3.29988 -7.26878 -5.70598 10.4768 1.71252 -5.14049
645 215 2 -2.84127 -0.917725 -6.38285 5.34739 11.6499 -0.477064
523 175 1 -2.86726 -2.75568 -7.41247 6.94035 20.0033 35.3129
506 169 2 -6.01595 -4.747 -6.3801 8.94192 10.1322 -0.266027
505 169 1 -5.34151 -3.95967 -6.47433 -13.3902 -22.709 6.36594
121 41 1 -1.08172 -2.64573 -9.45929 -7.26039 -7.8311 -13.5
122 41 2 -0.367658 -2.1689 -8.90764 7.11742 8.95426 4.65891
504 168 2 -1.90546 -4.94293 -5.84238 4.96978 -6.0176 0.519509
502 168 1 -1.13423 -4.3925 -6.23647 13.4366 -23.5806 27.202
503 168 2 -1.63207 -3.59925 -6.60435 -11.0422 22.1361 -16.0479
86 29 2 -6.37968 -1.17938 -8.05185 -0.252203 6.75506 -2.53753
524 175 2 -3.68406 -3.35766 -7.55951 3.68745 4.11542 -16.4951
83 28 2 -0.934239 -0.595708 -7.25463 31.9658 -9.86592 -0.627925
82 28 1 -0.0035868 -0.979174 -7.58795 -36.1921 14.7761 -15.7824
255 85 2 -7.09839 -6.65483 -5.10444 -2.29339 8.14875 -4.372
230 77 2 -7.08095 -0.838359 -5.67216 9.16008 -8.34083 -17.183
647 216 2 -3.92021 -1.10988 -3.44889 -5.3118 3.25533 8.4436
368 123 2 -7.13738 -1.58382 -3.97703 -8.48242 3.73359 2.60566
281 94 2 7.24106 -6.85042 -7.34001 -0.535987 4.56369 -11.612
492 164 2 5.15536 -2.83739 -6.15707 -5.69456 -0.686973 -2.05748
490 164 1 5.87995 -2.22171 -6.52369 16.3196 -29.2655 3.75499
491 164 2 5.5562 -1.27304 -6.67403 -3.56423 14.1621 -11.0479
237 79 2 2.90271 -6.99605 -6.3914 16.6937 1.18421 2.74749
555 185 2 0.585995 -4.83025 -7.25939 -9.73504 0.0888397 -14.8554
553 185 1 0.853696 -5.2825 -8.14365 4.61928 -0.565697 33.4593
554 185 2 0.17066 -5.07127 -8.89758 10.2165 -3.68716 -1.35978
99 33 2 1.11882 -1.20488 -4.21803 -3.71818 9.44705 3.16888
235 79 1 1.95829 -7.28801 -6.63799 -21.1783 3.85693 4.82635
236 79 2 1.60122 -6.4372 -7.10974 -1.59296 -9.37403 -11.6377
98 33 2 0.650593 -2.6024 -4.97864 1.13186 1.51856 5.43814
97 33 1 0.895906 -1.62542 -5.12462 5.95254 -15.4477 -6.10939
599 200 2 1.40037 -5.40525 -4.45562 0.384619 17.7139 11.6062
600 200 2 0.116076 -4.54709 -4.74796 -13.9889 10.1588 0.0241723
603 201 2 3.93575 -2.90411 -4.55173 -4.84435 4.15198 1.51362
601 201 1 3.60889 -3.35614 -5.41943 1.44586 13.1442 -1.6008
602 201 2 3.27903 -2.6607 -6.09659 -5.93482 -1.29812 5.97718
285 95 2 5.3879 -0.139665 -8.56348 15.7551 8.71389 12.3564
84 28 2 0.490039 -1.47368 -6.84471 1.59538 7.35032 17.8281
210 70 2 3.69723 -4.8802 -5.64444 7.48694 -0.330967 -4.32597
253 85 1 7.35568 -6.04944 -5.89865 -6.21286 16.5622 10.8682
229 77 1 7.20422 -0.391139 -4.9228 -2.68603 9.16996 4.11647
254 85 2 6.61009 -5.40499 -5.58827 12.3525 -11.3036 0.842088
209 70 2 4.88911 -5.92191 -5.16753 14.1364 -3.05434 15.3732
208 70 1 4.08756 -5.83915 -5.76162 -20.7286 -12.3549 -9.80502
180 60 2 4.64405 -1.25598 -3.40682 9.58156 3.74517 2.93661
178 60 1 4.98837 -2.23226 -3.2822 -7.65809 -14.7936 -14.1435
179 60 2 5.9433 -2.41493 -3.63556 -5.42462 17.9163 5.95464
598 200 1 0.843671 -4.63763 -4.04007 11.4722 -32.4748 -16.036
548 183 2 5.15674 -4.41008 -3.55957 -2.41944 6.89019 7.79877
547 183 1 5.76196 -5.2231 -3.58985 14.9445 -9.93349 11.9222
308 103 2 -0.870005 1.54764 -9.6003 -11.3018 -6.16106 12.1958
463 155 1 -2.60147 1.54285 -8.5458 -10.8369 -19.157 -13.9084
465 155 2 -2.72561 1.00633 -7.67253 6.07932 -7.6961 -2.1665
540 180 2 -1.29822 4.87236 -7.98114 7.36282 9.05277 4.14084
539 180 2 -1.51465 4.24149 -9.53707 -12.9936 -7.06817 40.5773
350 117 2 -0.805216 6.44698 -8.49828 8.22343 15.8862 -4.17945
635 212 2 -2.0161 6.83511 -6.63265 10.4187 1.59024 -6.96557
634 212 1 -2.87407 6.63819 -6.11371 -23.6816 -12.5061 18.5644
349 117 1 -0.570411 6.38595 -7.49828 37.3368 9.1532 18.9366
644 215 2 -2.75374 0.615864 -5.59946 8.16512 -9.83716 -6.10572
365 122 2 -4.59966 5.9469 -6.23503 18.3738 7.90386 -1.44751
280 94 1 -7.06098 7.28965 -8.0219 24.1899 -5.88437 38.9839
282 94 2 -6.48248 6.83202 -7.28423 -2.52029 -5.94638 -22.7653
643 215 1 -2.40434 0.0231713 -6.38636 -12.7666 -9.26881 9.23649
269 90 2 -7.01707 6.33325 -4.08425 2.13967 23.3473 21.0197
268 90 1 -6.69763 7.27706 -3.76765 5.31534 -12.0113 -28.3342
299 100 2 -6.0656 3.86092 -5.44716 2.32558 15.0778 -22.2453
13 5 1 -6.34321 0.535202 -7.83401 7.48227 11.7479 15.2052
300 100 2 -6.26087 2.93675 -4.28535 -6.93882 -21.1041 10.779
14 5 2 -6.28131 0.923409 -6.88999 2.21232 -3.05486 3.69712
570 190 2 -4.29114 4.04728 -8.11659 -23.7963 24.5356 -25.0984
568 190 1 -5.03253 4.58222 -8.65926 17.5898 -19.2954 12.1447
569 190 2 -4.68462 5.18122 -9.44174 10.3326 -10.4428 6.30481
478 160 1 -6.83005 2.7573 -9.24549 18.4688 -17.0836 -5.60815
480 160 2 -6.16606 3.53781 -9.14616 2.17242 6.95232 4.39999
464 155 2 -2.65312 2.50654 -8.26951 4.9454 17.0139 -4.16694
366 122 2 -5.68289 5.01425 -7.13634 9.15013 10.8617 3.31258
364 122 1 -5.55235 5.62304 -6.30015 -29.5267 -9.84707 4.91651
34 12 1 -2.89109 1.71008 -4.25538 -0.919524 -18.1368 6.43352
15 5 2 -6.24812 1.40984 -8.38509 -6.78657 -7.21871 -12.3764
39 13 2 -2.33107 5.79135 -4.57313 -14.0188 -2.42298 1.24729
538 180 1 -1.79176 4.1514 -8.5109 5.30392 -0.655771 -40.5831
38 13 2 -1.10196 5.50635 -3.69924 9.65947 -7.82614 10.3713
35 12 2 -3.13821 2.44962 -4.91331 0.534569 9.79569 -2.09401
37 13 1 -2.08921 5.28794 -3.70952 11.6022 25.2245 -32.2473
36 12 2 -2.12904 1.96194 -3.58729 -4.40479 4.78339 -6.00042
298 100 1 -6.48929 2.96636 -5.28262 2.37607 2.68317 10.5038
10 4 1 -3.43538 3.4586 -6.51823 30.9803 20.1703 -12.9016
11 4 2 -3.26372 4.31243 -5.99733 -12.8126 1.6962 15.6009
12 4 2 -2.69214 3.67099 -7.22216 -9.83447 -12.5086 2.08298
557 186 2 -0.32165 2.46358 -5.24907 6.5113 15.7769 -1.99729
556 186 1 -0.0306061 3.39706 -5.58397 -12.1585 -19.0981 8.88158
648 216 2 -3.81182 0.518434 -3.31031 -11.4554 -8.25785 3.95018
309 103 2 0.150601 0.420478 -8.784 -7.2815 -6.12034 7.1938
307 103 1 0.0691912 1.1825 -9.46149 20.9574 8.33995 -21.1941
623 208 2 4.46133 1.34377 -6.92254 1.06651 -3.23992 -0.3134
381 127 2 1.39139 4.79549 -9.08455 13.2554 -5.74823 -1.94742
90 30 2 2.64897 2.77545 -8.01837 -10.3957 -0.727975 10.4168
88 30 1 1.67121 3.08187 -8.1967 -0.459976 12.657 -10.4371
69 23 2 6.76055 7.01326 -9.12988 -2.11296 9.3877 2.78247
351 117 2 0.401082 6.7681 -7.2387 -40.8526 -15.349 -19.1707
445 149 1 4.25967 0.420859 -3.30113 -7.96727 18.4053 -7.54889
446 149 2 3.62954 1.16518 -3.69668 8.81635 -19.1088 9.78994
283 95 1 5.7869 0.203431 -7.65014 -14.8175 2.64964 -7.27484
284 95 2 6.75372 0.53418 -7.8453 -8.29626 -6.58176 -2.23301
249 83 2 0.812418 4.66006 -4.81574 6.14944 6.3079 -13.0132
247 83 1 1.36352 5.51119 -4.57255 2.22523 12.8598 2.32234
248 83 2 1.55692 6.12982 -5.38989 -6.00875 -15.4631 4.03258
622 208 1 3.64849 1.96204 -6.87195 -5.30229 1.80705 16.2752
624 208 2 3.11216 1.94218 -5.98294 13.7046 -2.15876 -15.812
479 160 2 6.99977 3.08206 -9.16431 -25.3535 8.64816 -1.91718
231 77 2 6.43999 0.126681 -5.34116 -4.35895 7.74595 2.94373
89 30 2 1.27693 2.50892 -8.94925 -4.31696 -5.5791 4.429
116 39 2 5.32164 3.57734 -4.64184 15.4955 -6.79236 -4.84593
117 39 2 5.21097 4.98537 -3.70302 18.4071 2.37536 11.1562
115 39 1 4.76526 4.3672 -4.36222 -22.7878 9.21073 -7.97923
21 7 2 3.35874 3.49281 -4.21883 3.79841 15.0449 -1.4379
19 7 1 2.82088 2.71043 -3.83704 -9.81441 -28.4926 6.8857
558 186 2 0.0673437 3.31525 -6.59447 9.64509 2.92972 -5.83011
306 102 2 2.85111 6.24677 -3.64033 -6.79344 -3.62828 9.63904
362 121 2 -0.0436872 -0.939231 -2.54515 -12.6421 -17.946 10.1799
261 87 2 -4.88183 -7.36005 -2.48586 11.5103 12.2345 -8.42753
270 90 2 -7.09589 -7.02548 -2.94857 -4.80165 -13.5547 10.1079
501 167 2 -1.93998 -2.24288 -1.32644 -5.18818 -0.772684 1.262
369 123 2 -6.26377 -1.33659 -2.73785 1.66935 -1.10397 8.9414
260 87 2 -3.41784 -7.00701 -1.78852 -1.50385 1.15132 -10.6296
259 87 1 -4.06885 -6.71034 -2.52122 -12.6315 -12.7565 17.81
374 125 2 -4.51473 -4.20297 -0.623054 2.54137 -4.39875 3.11129
375 125 2 -3.93536 -5.72344 -0.177411 -1.86019 14.2068 6.62755
373 125 1 -3.91472 -4.71747 0.0612984 -0.32877 -8.38929 -5.47124
646 216 1 -4.33242 -0.315893 -2.95032 18.9643 6.58075 -15.7778
302 101 2 -1.77839 -3.10884 1.70908 -13.1876 1.65497 -9.4014
301 101 1 -2.74063 -2.79419 1.4697 15.9272 -0.635258 7.17401
303 101 2 -3.2422 -3.60427 1.05462 0.482115 1.21506 -3.15628
94 32 1 -5.50881 -3.80496 -1.84125 22.0814 -24.9851 20.4208
562 188 1 -0.0168512 -3.70349 1.43038 -3.85828 -5.64053 1.79979
499 167 1 -1.12496 -2.16816 -1.91997 7.14872 -0.291612 5.74915
500 167 2 -0.34408 -2.68344 -1.46382 -2.76489 0.705768 -9.78867
101 34 2 -1.12671 -0.557416 3.00608 11.3535 0.196276 2.16398
110 37 2 -5.18168 -5.52868 2.80518 -12.4843 -17.3697 -7.4437
109 37 1 -6.1086 -5.84457 2.45119 39.8138 23.1645 21.7102
111 37 2 -6.56341 -4.97112 2.6966 -22.7691 0.316958 -5.11772
354 118 2 -2.9336 -0.0147502 1.81477 1.85821 13.8984 4.61803
367 123 1 -6.89752 -2.0612 -3.08987 4.2037 7.56334 -3.9924
95 32 2 -5.49656 -4.61811 -2.44702 -0.271237 -3.77881 -2.42688
96 32 2 -6.08571 -3.0823 -2.25223 -14.634 17.6542 -15.5547
287 96 2 -4.88787 -6.62695 1.33772 -15.4141 8.13081 4.65661
286 96 1 -4.59338 -7.31459 0.651534 8.06201 8.51791 -15.7018
353 118 2 -3.51165 -1.31586 1.17457 6.4908 -4.45589 -7.01828
352 118 1 -3.64389 -0.290932 1.12613 4.84646 -9.8457 3.79508
56 19 2 -6.23313 -6.23113 -0.693488 10.4078 0.476117 12.0192
55 19 1 -7.0779 -6.34931 -1.22471 -12.4133 9.54113 -27.8767
234 78 2 -5.03095 -1.2385 1.41596 -24.623 4.36031 -4.08616
232 78 1 -5.96079 -1.67469 1.59849 9.77559 -10.6097 19.7721
233 78 2 -6.76515 -1.22289 1.17043 1.12551 8.71826 -12.5916
149 50 2 -6.70269 -2.48985 3.06972 -23.7229 -17.1302 -0.46038
361 121 1 0.534218 -0.147668 -2.78358 3.59748 14.9521 -13.4399
563 188 2 0.31936 -3.79725 0.465085 -5.54053 -5.79152 -6.91898
564 188 2 0.563856 -2.95361 1.78897 4.47605 18.9448 5.76706
277 93 1 1.02559 -1.41143 2.4958 -10.6225 -42.239 12.7622
486 162 2 1.16095 -4.27265 -1.94602 -7.89633 5.26555 -8.68014
484 162 1 0.963879 -3.69213 -1.13207 26.6165 -6.17227 17.8219
485 162 2 1.88658 -3.66346 -0.621297 -16.4252 1.86041 -8.52216
450 150 2 6.6933 -3.17701 -1.18457 15.6659 -0.613499 -0.237845
448 150 1 5.78356 -2.90995 -0.851757 -13.0387 -7.18888 9.22947
449 150 2 5.34156 -2.41109 -1.63902 -0.8944 0.953153 -0.994362
51 17 2 5.98836 -3.04475 1.21142 -17.7072 -5.06439 6.27941
549 183 2 6.31884 -5.34945 -2.71939 -11.7442 5.11385 -15.622
49 17 1 5.45558 -3.3883 2.03501 1.63747 1.87696 -19.4049
18 6 2 3.55654 -3.81135 1.07483 -5.92721 2.44385 12.4405
296 99 2 1.45968 -7.36712 1.74635 -11.6952 1.57186 15.0449
17 6 2 4.23704 -3.70451 -0.31014 5.4544 5.30354 -10.1717
16 6 1 3.3582 -4.03337 0.101619 3.33944 0.858843 1.505
279 93 2 1.6401 -2.0651 3.02336 3.3025 15.1219 -8.84569
278 93 2 1.26316 -0.427847 2.59255 9.20948 18.3143 -3.68779
370 124 1 0.40293 -7.09784 -2.65916 -3.37485 7.38741 -4.63571
371 124 2 0.436406 -6.11327 -2.94266 -5.73122 -0.557914 1.54401
496 166 1 2.9744 -3.45527 3.22649 -2.46308 10.171 -2.42642
498 166 2 3.97856 -3.28557 3.03567 -5.61997 -0.494193 -3.4773
62 21 2 4.96386 -7.23926 0.120696 -13.9704 6.06892 7.84238
57 19 2 6.96658 -6.76799 -0.655902 -5.55912 -8.94609 16.2624
91 31 1 3.53541 -6.65404 -0.320906 -0.0988754 -5.03751 -0.566284
92 31 2 3.11089 -6.80873 -1.24699 2.02419 0.878806 2.23734
93 31 2 3.43622 -5.69257 0.039996 -4.12978 9.78344 -10.4128
50 17 2 6.1392 -3.2724 2.81172 2.53302 0.183623 3.7872
158 53 2 5.10386 -5.57277 2.96087 -7.28354 11.2714 10.9193
593 198 2 -3.09776 4.97464 -2.55983 11.2206 -17.3935 3.81336
363 121 2 -0.118384 0.640525 -2.94557 12.5015 -1.85007 5.88649
53 18 2 -7.35477 5.35561 -1.90645 -14.3221 14.4144 -5.00622
312 104 2 -0.356719 3.07205 -2.72723 4.07242 11.4527 4.69778
310 104 1 -0.818165 2.17475 -2.60531 -7.2763 -3.94589 -7.18229
167 56 2 -0.922718 6.81445 -1.80578 5.91015 1.71435 -2.14173
100 34 1 -1.69859 0.277072 2.9215 -17.0994 2.454 -0.5309
594 198 2 -2.81051 4.10171 -1.1252 3.92492 2.91408 -1.86359
592 198 1 -3.50007 4.31833 -1.84563 -19.5464 -2.00964 8.17205
340 114 1 -5.56502 5.75724 -1.16601 -11.4185 11.8138 6.33633
342 114 2 -5.15405 6.431 -0.483259 -5.29762 -5.55128 -3.67055
561 187 2 -4.97312 3.41029 -2.51828 4.50174 -2.83316 6.64277
559 187 1 -5.84984 2.88327 -2.59328 -3.90053 14.7103 -17.0332
311 104 2 -0.790851 1.94346 -1.60391 -1.56812 -6.7302 4.28071
573 191 2 -1.27552 2.84969 0.466593 0.171582 -2.52115 2.19117
341 114 2 -4.80281 5.14114 -1.49122 4.50014 -4.93254 1.64944
560 187 2 -5.95888 2.25491 -1.8088 1.56278 -10.6148 10.2742
418 140 1 -5.46518 0.683917 -0.722489 5.00427 15.676 12.4956
420 140 2 -4.71698 0.755857 -0.0129481 -8.88175 -7.22646 1.69519
565 189 1 -3.52959 5.45021 1.80284 -11.4444 6.86063 18.2633
566 189 2 -4.51557 5.1378 1.89038 17.7917 -4.5727 -6.18976
288 96 2 -3.94533 6.83561 1.17703 -1.84561 -11.0731 -3.6815
567 189 2 -2.87744 4.75205 1.4514 5.67131 -15.4454 -7.17767
166 56 1 -1.38434 6.51372 -0.940104 -4.78417 9.43904 -2.20404
274 92 1 -0.981571 1.10134 -0.0201353 -21.9179 -20.8902 13.9815
275 92 2 -0.279948 0.962331 0.694436 15.3703 4.86386 3.38016
168 56 2 -1.39569 7.35866 -0.37545 0.868462 -6.34161 6.95268
537 179 2 -0.334197 5.1049 -1.38162 0.0864541 4.32761 3.38728
276 92 2 -1.63673 0.325179 0.225572 8.19747 23.5367 -16.552
333 111 2 -7.11174 0.458867 -0.0301945 9.58688 -2.30716 -6.21446
419 140 2 -4.94318 0.428475 -1.5679 -4.39366 -10.0208 -11.824
546 182 2 -6.46526 5.18036 0.614895 -2.91946 1.93542 -11.1866
545 182 2 -6.36286 5.41027 2.27733 -9.54552 -7.99048 -2.98545
544 182 1 -6.39423 4.70021 1.50208 15.5926 -4.73555 11.353
615 205 2 -1.31359 5.50975 3.22526 -4.50604 -1.15572 -10.374
591 197 2 -6.28758 7.21743 3.11649 -2.6151 18.3057 6.56335
572 191 2 -0.623059 4.25537 1.10394 11.7097 1.15054 -0.979526
571 191 1 -1.47764 3.77517 0.862854 -14.2466 -1.04535 -2.1889
389 130 2 -5.42929 3.56222 2.83688 1.15256 -12.8075 12.0405
447 149 2 4.74672 0.905776 -2.53048 -0.313642 -3.50148 -5.50538
20 7 2 2.04028 2.97426 -3.23609 1.40098 5.22845 -5.0609
54 18 2 6.56076 4.1642 -2.19289 -14.0732 -23.2667 -2.28086
52 18 1 6.4457 5.16212 -2.2413 32.4767 12.2105 11.4645
305 102 2 4.14641 6.70072 -2.79721 0.393623 0.550579 6.61644
304 102 1 3.13341 6.64221 -2.72639 4.15478 3.10024 -19.6857
348 116 2 2.17068 4.34928 2.80391 -5.37049 4.91613 9.79589
575 192 2 6.96437 0.283755 2.29198 -4.36705 -6.6681 10.2858
574 192 1 6.64023 0.198051 3.27096 4.06801 10.4317 -0.390283
332 111 2 6.06558 0.534604 -0.36086 -1.84298 -3.5246 1.23754
331 111 1 6.74646 0.0800986 0.245529 1.91026 7.11846 7.04938
295 99 1 1.60563 6.81413 0.935745 -3.16204 -1.54067 6.48668
372 124 2 1.24866 7.22622 -3.00964 5.182 -6.21068 2.3042
398 133 2 1.71427 5.11094 1.38083 -3.99731 19.947 -8.00006
61 21 1 5.77749 6.92912 0.278909 9.62975 -4.85864 -14.5349
63 21 2 5.73895 6.35334 -0.566437 8.99957 -10.5077 7.78631
329 110 2 5.20481 2.73767 -0.674885 -3.37262 9.38637 15.1003
328 110 1 5.22047 2.43158 -1.65154 -0.517409 -8.22803 -23.3033
530 177 2 2.55937 0.912754 2.97918 0.162333 1.708 3.55381
297 99 2 2.31167 7.32941 0.405423 8.92854 -3.41103 -9.66255
531 177 2 1.96955 2.08341 2.00197 -10.2736 -10.1969 1.73671
529 177 1 1.76956 1.14588 2.38169 11.4444 14.1407 -7.54949
330 110 2 4.50346 2.91322 -2.20427 4.01266 -1.84138 5.78939
397 133 1 1.74331 4.12788 1.10809 8.69469 -25.2326 10.1942
536 179 2 1.00837 5.25993 -2.41062 -12.4001 -13.2503 12.353
399 133 2 1.81284 4.09881 0.0987579 -5.01342 1.58299 -10.4829
535 179 1 0.43077 4.59988 -1.84735 16.2849 6.02645 -15.4425
462 154 2 3.93277 3.56288 1.05567 20.1318 -1.41724 -2.71197
460 154 1 4.89892 3.25652 0.838094 -20.9484 -8.01088 7.83458
461 154 2 5.20607 2.62635 1.59973 -3.4595 13.9138 -4.40832
440 147 2 5.19897 6.01792 2.21804 -2.34928 -3.27258 -10.8307
439 147 1 4.61112 5.78935 3.02063 20.1992 15.3412 17.9595
6 2 2 -0.0625261 -3.993 3.29419 -6.98757 -14.9293 -11.2243
4 2 1 -0.444494 -4.46479 4.12736 5.95144 29.4576 21.2402
604 202 1 -3.27207 -4.19748 4.29601 -21.113 22.2196 9.55662
605 202 2 -3.37217 -3.21487 4.6062 1.63905 -22.2951 -8.54793
606 202 2 -2.30683 -4.45631 4.17351 14.6931 -0.413398 -5.09471
410 137 2 -1.858 -4.91543 7.22692 3.7337 -12.9848 -11.7938
409 137 1 -1.24336 -4.21015 7.62538 5.5389 25.5166 20.6709
138 46 2 -4.0856 -5.7161 8.50094 5.51248 8.32682 39.2778
5 2 2 -0.240755 -3.73034 4.84777 2.54964 -15.9322 -8.1671
238 80 1 -3.40763 -2.28974 8.23031 -8.83635 39.3031 17.0192
402 134 2 -4.29664 -1.06197 6.94867 -11.8778 3.98408 5.06451
239 80 2 -3.23223 -1.6517 9.05178 -12.1457 -19.7415 -13.4921
495 165 2 -1.13819 -5.55112 5.18406 2.28197 2.48917 14.8153
493 165 1 -1.48357 -6.23797 5.87772 4.69071 10.0514 -22.7412
494 165 2 -1.74357 -6.95099 5.21639 -8.73043 -20.8911 6.74352
400 134 1 -5.06671 -0.536157 6.49124 36.8177 21.3813 -18.2958
240 80 2 -2.55437 -2.79775 8.14293 19.7668 -23.0608 -7.6399
411 137 2 -0.328011 -4.14636 7.18415 -3.40893 -4.56621 -4.17203
150 50 2 -6.92793 -2.9741 4.55667 -6.50867 -6.54892 14.3319
148 50 1 -7.38203 -3.06323 3.63943 46.0388 22.9193 -9.53539
225 75 2 -0.21975 -5.7245 8.7245 -2.28922 5.80934 11.3518
136 46 1 -3.83201 -5.78267 9.52031 -14.4111 9.35455 -22.8804
192 64 2 -5.92337 -3.55012 6.63228 11.7608 10.7147 8.72575
190 64 1 -6.17815 -2.74872 6.05744 -38.117 -39.4597 -28.0737
191 64 2 -5.7291 -1.83453 6.18471 12.3474 9.62957 18.0172
250 84 1 -7.36588 -3.77964 9.23216 -14.7878 15.518 16.8575
252 84 2 -6.8547 -3.11 9.81023 1.29484 -2.23123 -6.85415
321 107 2 1.80628 -6.9166 4.10752 -36.1886 1.64388 -23.9323
319 107 1 0.915265 -6.792 3.55199 32.0286 13.3414 34.2109
576 192 2 7.32879 -0.206059 3.91324 -4.16769 2.05277 -11.536
159 53 2 4.52812 -6.85988 3.65009 -4.24818 -17.1471 6.67011
320 107 2 0.412485 -5.95723 3.94545 7.67656 -16.6962 -16.9662
113 38 2 6.70942 -3.00554 6.8969 -2.16186 -13.3782 -4.75235
577 193 1 1.03188 -2.72827 5.72797 -37.192 9.43863 -8.50294
578 193 2 1.78384 -3.32657 6.06297 25.1934 -5.09031 4.10112
579 193 2 1.3505 -1.78735 5.49407 6.05426 -4.5019 4.46345
497 166 2 2.91574 -4.35505 3.6939 4.34734 -3.66137 1.08256
314 105 2 3.62629 -4.98798 5.94772 2.01627 2.20245 1.5366
313 105 1 3.09518 -4.27855 6.45863 -3.8918 -13.3868 10.8972
358 120 1 2.95802 -4.99711 9.06633 22.3581 6.76286 -6.34884
114 38 2 4.97021 -3.32513 6.85161 -2.70953 -17.7344 -6.75104
112 38 1 5.74512 -2.71619 7.07066 2.68115 29.3104 6.43717
315 105 2 2.90987 -4.61571 7.43599 8.34177 11.3689 -12.6182
608 203 2 2.0176 -1.58804 9.68762 5.16798 -9.75286 -2.41772
30 10 2 5.68139 -1.15587 6.96411 -4.60714 16.2454 12.3513
28 10 1 5.54317 -0.107099 7.03986 15.1932 -36.5393 22.1685
72 24 2 0.148165 -1.9514 7.64221 7.48829 -4.09908 -3.67814
360 120 2 3.96074 -5.29542 8.93455 -33.914 -6.22498 1.75947
359 120 2 2.18832 -5.67759 9.03167 8.23517 -6.06645 5.55145
416 139 2 4.80383 -7.32462 8.07466 -9.46641 -3.17812 -5.99036
219 73 2 4.64663 -1.45087 9.80467 -5.72722 2.31285 2.68654
157 53 1 4.46682 -5.85967 3.71637 7.3676 3.42349 -15.333
223 75 1 0.397581 -6.43742 9.11777 1.68802 -3.10093 -26.6077
224 75 2 0.338111 -7.14833 8.36107 1.91092 -5.43914 13.38
218 73 2 5.79099 -0.620521 8.94574 -3.82468 2.17755 -8.13469
217 73 1 5.5977 -1.05966 9.84304 7.38838 -4.85109 7.36459
70 24 1 0.642855 -1.40684 8.3447 -13.9553 -0.214308 -1.95069
71 24 2 0.178536 -0.484917 8.35181 5.05145 9.21869 -0.760177
417 139 2 5.76934 -6.37366 8.9351 5.92791 8.11423 -9.74256
415 139 1 5.27267 -6.41431 8.02298 3.49381 1.1732 19.5852
251 84 2 6.39919 -3.51404 9.3177 21.2404 -5.00789 -10.3344
102 34 2 -1.33781 1.07528 3.47484 13.1618 -1.08952 -0.156425
155 52 2 -6.45744 0.60369 6.50297 12.5768 1.02513 4.00974
154 52 1 -7.09853 1.33321 6.81786 -4.12005 -8.59574 5.07633
613 205 1 -0.760913 5.77064 4.02821 -20.5736 -11.6635 12.8914
614 205 2 -0.017312 6.39446 3.74778 16.9568 12.6136 -3.55555
181 61 1 -0.340022 2.25745 4.3689 5.48902 -9.90054 -1.23099
182 61 2 -0.426081 3.24297 4.40751 -21.6699 28.7948 -1.84075
326 109 2 -4.414 1.81987 4.37907 3.11964 15.6748 -27.7089
327 109 2 -3.0956 0.659582 3.93287 -10.8055 17.7757 -8.61802
589 197 1 -6.30982 6.27576 3.49936 -2.14139 -17.2549 -7.66512
590 197 2 -6.47856 6.19321 4.50983 7.00406 13.4487 0.560646
325 109 1 -3.78611 1.04218 4.60306 10.3779 -39.7168 40.7384
401 134 2 -4.59902 0.0644019 5.76035 -9.53779 -8.09765 13.7369
215 72 2 -6.39492 7.12354 9.12558 -9.00503 -1.46414 -0.0819732
26 9 2 -2.75616 2.09659 5.96874 -1.64035 -6.90182 -6.06666
25 9 1 -2.50076 2.87381 6.57167 -1.96841 9.83881 22.7129
27 9 2 -2.56186 2.60934 7.57049 2.38186 1.19079 -17.4647
189 63 2 -5.50346 6.44213 7.06256 -12.4504 -0.296989 3.22301
187 63 1 -5.34992 6.18548 6.07864 30.6161 -5.21871 -4.48763