ITEM: TIMESTEP
39000
ITEM: NUMBER OF ATOMS
648
ITEM: BOX BOUNDS pp pp pp
-7.2513809412875307e+00 7.2513809412875307e+00
-7.2513809412875307e+00 7.2513809412875307e+00
-1.6114179869528019e+01 1.6114179869528019e+01
ITEM: ATOMS id mol type x y z fx fy fz
332 111 2 -4.1509 -0.602698 -9.72288 2.96722 9.35928 1.4399
644 215 2 -2.11597 -4.86656 -12.6085 -14.4048 7.94199 14.4331
131 44 2 -7.09376 -4.74167 -11.3369 -7.93017 15.1214 -13.9479
130 44 1 -6.75893 -3.74926 -11.4375 19.3728 -23.4729 10.5697
643 215 1 -2.54475 -4.26673 -11.863 -7.38738 2.42379 -17.2195
645 215 2 -3.23669 -3.63381 -12.3142 9.68067 -11.3794 -0.00723582
132 44 2 -6.20737 -3.63156 -10.5907 1.93169 6.95468 2.74283
242 81 2 -1.47622 -7.01989 -13.3137 -9.13783 10.4058 -8.03168
243 81 2 -1.60045 -5.8757 -14.5643 -24.4609 -22.8028 29.8759
241 81 1 -2.13252 -6.33594 -13.7413 44.873 11.2778 -26.6399
637 213 1 -4.66319 -2.77612 -13.2177 -8.2157 -2.47815 14.2294
639 213 2 -5.18506 -3.27082 -12.4715 -2.73192 11.6284 -14.4425
638 213 2 -5.31105 -2.14187 -13.74 6.9005 -7.03135 8.03443
368 123 2 -5.08571 -6.74783 -13.5183 -19.9612 5.75198 -4.26709
367 123 1 -5.9582 -6.34463 -13.9624 13.6772 0.537007 12.538
430 144 1 -2.28942 -1.38895 -13.982 -23.3762 -1.15074 16.8238
432 144 2 -3.06077 -1.70765 -13.3379 25.6889 9.00366 -18.4005
617 206 2 -0.151551 -6.78906 -10.4518 -2.13292 -8.20672 -11.6847
81 27 2 -3.42245 -4.36377 -9.69763 5.51238 -1.70263 -14.5798
38 13 2 -0.240262 -2.55621 -10.9679 -4.58472 -0.0818775 -6.3402
377 126 2 -2.2482 -1.24438 -15.5142 5.26575 -6.33202 4.20449
385 129 1 -6.56252 -0.854443 -14.0959 -12.1182 19.446 2.29681
431 144 2 -1.4138 -1.04102 -13.5832 -7.58588 -7.0333 11.9836
386 129 2 -7.08434 -0.771242 -14.9995 20.9173 -1.16222 12.3357
621 207 2 -3.34686 -7.08577 -13.1212 -15.5114 -14.0259 19.9825
39 13 2 -1.59049 -3.59065 -10.8271 26.154 11.5645 1.10592
37 13 1 -0.748909 -3.16508 -10.3344 -22.5831 -14.9681 7.89495
559 187 1 -0.741007 -5.52472 -15.9629 40.18 -7.24999 16.3172
369 123 2 -5.91121 -5.32698 -13.8939 3.84091 1.15144 -0.492613
423 141 2 -6.13429 -6.78377 -15.4165 -8.79149 -13.8848 -4.8519
284 95 2 1.07328 -2.63719 -12.3123 -21.821 7.17801 1.56713
285 95 2 0.821423 -2.0004 -13.6495 -7.3443 7.59066 -21.6952
283 95 1 0.362468 -2.0141 -12.746 37.5588 -15.446 21.7779
345 115 2 6.20686 -1.24104 -12.8295 5.20917 -10.6185 21.471
44 15 2 2.79637 -5.18253 -10.4466 9.03821 -5.76868 8.39295
627 209 2 6.45664 -7.04807 -11.5042 2.00468 27.3708 3.39491
343 115 1 6.12636 -1.77048 -11.9323 -12.7023 21.6971 -23.2565
344 115 2 6.89988 -2.44754 -11.8679 6.54344 -6.36926 4.91669
625 209 1 6.39672 -6.01269 -11.3867 4.68482 -26.7527 -7.55109
14 5 2 3.33746 -6.87236 -12.3162 0.61215 0.473522 -8.8506
13 5 1 3.42413 -6.34223 -13.2016 17.2311 -1.22843 0.629796
15 5 2 4.415 -6.28324 -13.5363 -21.1255 1.36892 8.33949
557 186 2 2.97261 -1.52874 -14.7952 4.0489 17.8108 2.43236
264 88 2 1.91833 -3.66639 -15.9412 -8.17789 -23.2963 -16.653
2 1 2 5.96688 -6.02558 -15.7602 3.62987 7.09528 6.02858
363 121 2 3.00956 -6.76022 -14.8953 5.43708 5.7137 25.5613
361 121 1 3.16263 -6.99046 -15.8687 14.4646 -26.3835 4.97213
1 1 1 5.87722 -5.61631 -14.8115 -4.13235 -4.91935 8.86864
3 1 2 6.65837 -5.85573 -14.1931 5.26867 -5.84866 -8.64798
626 209 2 5.83601 -5.74729 -10.5714 -9.75826 0.318975 6.98105
556 186 1 2.36208 -2.34003 -14.8718 5.07304 -36.3742 12.1014
558 186 2 2.90795 -3.07918 -14.3762 -7.67154 12.5137 -9.66391
348 116 2 5.37262 -3.09344 -12.8283 -6.26194 -1.5637 -14.3884
346 116 1 4.96192 -3.37799 -13.7416 5.04774 -15.0495 -5.191
45 15 2 2.62888 -5.10061 -12.0797 -2.48917 8.12578 10.4254
43 15 1 2.3999 -4.61942 -11.1848 -6.46695 -11.4506 -29.532
116 39 2 5.07303 -1.41586 -10.7837 -3.22186 10.7294 8.36742
458 153 2 0.845121 -0.727593 -11.6478 26.6998 25.9023 16.4482
457 153 1 1.49481 -0.15669 -11.0198 -35.8564 -35.2932 -10.4636
459 153 2 1.84941 -0.887986 -10.3668 5.47274 7.14054 -5.11669
347 116 2 5.40191 -4.27823 -14.0878 -12.1452 19.759 5.61639
82 28 1 2.32696 -2.47162 -9.80816 -7.0819 -4.53271 8.43614
115 39 1 4.58601 -1.03435 -9.93189 0.146356 -21.2304 7.55326
84 28 2 2.17369 -3.31863 -10.4043 8.19322 4.93318 -2.09059
185 62 2 5.01383 -2.72472 -15.6122 2.03372 0.0670507 -7.53321
387 129 2 -6.57527 0.0817841 -13.6116 -5.65561 -19.3441 -13.1129
199 67 1 -0.277685 5.4639 -13.2896 6.02023 20.2189 19.8108
226 76 1 -1.86677 5.3524 -15.4204 -21.9096 0.316046 -23.4694
228 76 2 -1.18251 5.48976 -14.677 7.60979 1.19434 14.1461
175 59 1 -6.74414 6.12036 -12.3141 22.4779 -4.27953 -4.69617
176 59 2 -5.77057 6.07546 -11.9223 -20.4834 7.59534 -6.64562
145 49 1 -2.22564 4.47751 -10.9395 3.31019 -27.2703 -20.7038
146 49 2 -1.86462 4.69758 -11.8605 9.17826 18.4257 -2.52296
147 49 2 -2.6594 3.58491 -11.1906 -6.5001 3.48752 17.9598
318 106 2 -2.68053 5.70631 -9.85228 -0.390684 -6.66224 -11.5193
585 195 2 -2.2815 3.43689 -15.7041 5.01096 -6.2134 13.2999
583 195 1 -2.41288 2.45607 -15.3941 2.15237 11.9706 -12.9816
584 195 2 -3.22374 2.1117 -15.9067 -6.82555 -8.89145 0.426781
29 10 2 -4.83216 2.63871 -12.2944 -0.318535 3.87309 2.92819
516 172 2 -2.53185 2.00126 -12.2906 -10.6656 -6.21286 -3.74891
28 10 1 -4.15071 2.23331 -11.6355 10.0232 3.66899 10.0113
30 10 2 -4.47279 2.42038 -10.6641 2.94687 -6.42059 -4.72801
620 207 2 -3.83682 6.93784 -11.5375 2.15562 -2.34272 -12.0604
619 207 1 -4.0995 6.92063 -12.5462 20.5582 13.8004 3.03069
514 172 1 -1.68556 1.73871 -12.8065 8.66008 -1.10024 14.4449
355 119 1 -4.55295 4.47657 -15.8117 21.7571 -20.1409 -9.55669
357 119 2 -3.70727 5.06718 -15.7123 -9.14396 -6.90505 -1.53153
265 89 1 -5.8073 3.74796 -13.0974 -16.8504 40.76 25.1376
456 152 2 -0.738143 1.80861 -11.3244 -1.30485 9.79203 0.133784
267 89 2 -6.29501 4.67639 -12.8125 24.1512 -48.5571 -20.6223
454 152 1 -0.209176 1.96341 -10.4478 -9.75525 -6.30952 -4.66651
266 89 2 -5.10607 3.90882 -13.8231 -2.87986 7.78389 -11.271
360 120 2 -6.59215 2.36878 -12.9258 -27.9554 -20.3672 -17.6388
177 59 2 -6.59622 6.58279 -13.2445 -8.03827 -2.20422 20.4226
515 172 2 -1.90932 1.80084 -13.806 -0.198581 4.24003 -7.44115
227 76 2 -2.10307 6.24868 -15.8683 5.67572 -4.99282 1.39945
392 131 2 -5.38824 1.12055 -16.0491 -11.9655 -9.72277 8.86399
616 206 1 0.252855 7.08887 -11.1739 -16.8386 18.2674 10.5178
618 206 2 1.23537 7.03634 -10.9377 17.9807 -7.21666 -0.452788
200 67 2 0.132578 6.00948 -12.496 -14.1294 -0.572963 -7.09673
358 120 1 7.16123 1.63131 -13.1099 17.6564 22.4105 14.0535
611 204 2 0.317724 4.31551 -11.123 -22.3353 10.7037 -7.59668
201 67 2 0.483995 4.8468 -13.6145 -1.40557 -9.3289 -2.59455
220 74 1 2.95556 6.41831 -11.0128 24.9848 15.8408 -18.5094
359 120 2 6.31437 2.00923 -12.6474 4.49463 -12.7214 0.469618
455 152 2 0.387444 1.14681 -10.3937 11.8533 -10.6914 1.6012
221 74 2 2.48166 5.52162 -11.1321 -14.5468 -8.45468 7.44863
222 74 2 3.94837 6.21709 -11.2921 -13.8869 -3.4014 17.2909
523 175 1 2.38784 2.01138 -12.2225 3.42662 21.7319 1.09387
525 175 2 2.0553 2.85182 -11.7165 2.63468 -2.59552 -10.4613
174 58 2 3.28337 0.67863 -13.4138 1.44749 14.8626 24.4791
524 175 2 2.04953 1.20737 -11.6879 -4.20577 -19.8461 5.69072
509 170 2 6.32095 5.6551 -11.438 -18.379 -10.633 -6.04306
510 170 2 5.27737 4.36458 -11.7244 0.508182 20.1137 14.0301
508 170 1 5.33818 5.31332 -11.2859 29.4479 -15.7932 -15.6373
142 48 1 1.34184 3.61768 -14.1335 -3.79857 22.0551 -25.5298
144 48 2 0.820427 3.44056 -15.0171 3.66042 -12.7756 8.91961
143 48 2 1.45327 2.74443 -13.6359 3.86456 -13.158 8.22373
172 58 1 3.184 0.138004 -14.244 -22.0827 -6.12891 -36.2968
553 185 1 4.96318 2.19056 -11.5358 0.727326 17.1819 -36.0665
173 58 2 2.23432 0.32382 -14.6333 22.6922 -2.41309 5.98804
555 185 2 4.07426 2.18629 -12.0751 5.82132 -3.09062 11.7367
554 185 2 4.75468 1.96739 -10.5848 -2.93286 -7.25359 27.4009
612 204 2 1.27284 3.48707 -10.224 -0.824376 5.99687 5.06014
610 204 1 1.28131 4.29513 -10.8518 23.2525 -22.3094 5.86922
520 174 1 5.98644 4.21317 -15.0022 -4.57231 -30.4967 1.1204
521 174 2 5.02604 4.34191 -14.704 -6.80522 19.3595 0.620602
522 174 2 5.91938 3.23579 -15.3196 18.1273 12.8265 3.40013
572 191 2 4.82257 1.06928 -15.5777 -9.20897 -1.29473 5.23563
630 210 2 2.53694 4.37825 -14.9204 1.96591 16.9023 -3.44996
628 210 1 3.29926 4.86983 -15.4437 10.491 31.8709 -17.7911
629 210 2 3.23218 5.93336 -15.6332 -6.58071 -45.8595 21.3166
247 83 1 0.279124 1.94808 -16.0507 -12.9952 3.21343 -3.12941
331 111 1 -4.74739 -1.38489 -9.48318 -16.75 -15.8651 -2.33667
333 111 2 -5.75433 -1.14123 -9.60378 9.31318 3.13646 5.43622
80 27 2 -4.21731 -2.88579 -9.25408 -1.89115 -18.8601 -5.20168
79 27 1 -4.05996 -3.91034 -9.06544 -7.40862 21.7968 12.3224
194 65 2 -6.1498 -2.22941 -3.2597 -2.69788 12.5686 4.80449
492 164 2 -5.67047 -1.93292 -7.44714 -0.369012 -2.79601 -5.15021
490 164 1 -6.33016 -2.30575 -6.76251 -1.24826 19.9885 0.551451
491 164 2 -6.74529 -1.46888 -6.32523 1.46877 -9.22398 -3.10893
349 117 1 -0.629381 -4.72107 -6.13243 -7.73563 4.91174 14.9046
351 117 2 -0.117724 -4.72993 -6.99355 8.84491 -1.14211 -18.7036
350 117 2 -1.50794 -4.21857 -6.30281 2.22624 0.60321 3.68891
135 45 2 -3.04218 -2.60912 -7.96212 -6.38643 -19.2573 1.33334
134 45 2 -2.28248 -1.32544 -7.69052 9.40674 28.0065 -3.41078
304 102 1 -2.41069 -2.35728 -4.5786 1.05631 1.87601 1.48204
133 45 1 -2.40353 -2.23535 -7.27344 -0.485556 -10.0647 3.6714
57 19 2 -5.10639 -3.3973 -4.45768 -5.41882 -6.42899 0.348463
55 19 1 -4.59036 -3.73579 -5.28176 9.42981 -5.11655 -2.86721
56 19 2 -5.11969 -3.4676 -6.13135 -0.288887 -1.20203 9.34705
53 18 2 -4.02577 -5.35183 -3.94823 -1.03809 -7.9726 -10.7972
306 102 2 -2.26343 -2.07011 -5.55886 5.9138 1.15178 -1.80115
305 102 2 -3.14306 -3.05751 -4.72121 -9.05206 -7.36612 -0.939832
364 122 1 -0.688055 -5.66372 -8.99258 -28.2309 15.9333 4.57083
365 122 2 -0.771362 -4.67511 -9.32439 9.70101 -13.0918 -2.74851
366 122 2 -1.62721 -5.91207 -8.61452 21.9991 -1.72309 -9.72928
195 65 2 -6.87215 -3.65363 -3.50113 29.321 1.58768 16.6605
438 146 2 -0.566666 -6.4967 -5.8192 -8.27735 6.54552 -1.81247
68 23 2 -6.75318 -6.85114 -5.24561 7.47509 5.19373 15.4601
67 23 1 -6.68496 -6.46551 -4.27615 -24.4205 0.980689 -24.6697
52 18 1 -3.36819 -5.79557 -3.30494 -7.74343 16.9093 0.507918
502 168 1 -7.20079 -0.697147 -3.34951 13.4268 19.3789 19.7068
33 11 2 -3.13355 -0.472656 -4.23007 -0.85254 14.2688 -13.99
532 178 1 4.75619 -5.06222 -9.31282 7.40597 18.1272 8.33132
622 208 1 7.16749 -0.548845 -9.07446 25.1989 19.2092 5.30256
342 114 2 0.876303 -2.53196 -3.6895 -4.45534 -13.8109 -34.883
534 178 2 5.19138 -4.21736 -8.87672 -5.41609 -17.7553 -6.08404
533 178 2 4.27278 -5.5252 -8.54832 0.644036 -5.47058 3.91832
341 114 2 0.459022 -3.37552 -5.24065 1.63773 11.3579 23.7742
381 127 2 6.66426 -2.8212 -7.49418 -0.551636 1.81466 5.51444
9 3 2 3.19943 -0.872155 -7.04904 -6.97713 -10.2361 9.72774
340 114 1 1.05564 -2.6945 -4.7155 3.49517 2.57486 14.3501
380 127 2 5.08888 -2.33728 -7.93404 17.7814 -13.1069 14.0903
379 127 1 5.66754 -3.08878 -7.50476 -17.9298 10.8932 -21.7672
117 39 2 3.84123 -1.71645 -9.65817 5.18608 16.7943 -14.8699
538 180 1 2.47338 -2.74199 -7.07244 -16.9348 30.7443 28.345
540 180 2 2.09034 -2.49228 -6.10793 8.52707 -14.3138 -33.2477
539 180 2 2.99701 -3.60488 -6.99718 10.0602 -17.5167 7.81371
183 61 2 6.05395 -4.46534 -5.66689 -5.34744 -11.8127 -19.9721
83 28 2 2.29453 -2.85264 -8.85007 -2.74568 13.0269 4.21994
182 61 2 6.20322 -3.17742 -4.8115 -3.24297 -1.93951 3.12851
383 128 2 0.579863 -6.73927 -8.46933 -13.5963 3.29637 1.95463
420 140 2 2.56729 -5.83962 -7.04496 10.2921 -0.416371 16.1835
418 140 1 3.28621 -5.32673 -6.4961 -7.32322 1.956 -37.3677
382 128 1 1.23731 -7.21332 -7.84846 34.2486 12.3958 -18.0549
181 61 1 6.29152 -4.19701 -4.72998 3.84194 21.4397 14.2811
69 23 2 7.07488 -5.72855 -4.23435 18.4882 -10.1144 1.19239
268 90 1 4.99256 -1.42787 -4.65107 -32.5209 6.18724 -3.17458
269 90 2 5.75237 -1.16738 -4.03952 21.8413 5.65806 13.1642
419 140 2 3.18602 -5.37362 -5.4996 -6.12785 -8.6259 17.0377
624 208 2 6.23667 -0.74084 -9.41069 -23.2923 -4.0078 -10.188
198 66 2 0.666099 -6.25145 -3.54927 -7.59308 0.998025 -0.0937051
196 66 1 1.51231 -6.67945 -3.89682 8.94974 14.5279 0.396717
197 66 2 1.34984 -7.22715 -4.7394 -4.65521 -8.12156 -0.264374
287 96 2 4.39505 -3.3865 -3.59912 -1.73287 0.154089 5.38409
276 92 2 1.81278 -0.227077 -4.39215 -1.7696 12.0769 1.28685
270 90 2 4.23172 -0.73864 -4.51509 6.85436 -14.2453 -0.621878
476 159 2 -2.11897 0.467388 -9.49146 -10.3341 -9.57092 29.0174
623 208 2 -7.19116 0.471178 -9.08624 -0.481091 -10.7339 0.817607
316 106 1 -3.30399 6.49874 -9.65863 -5.80001 21.0242 11.55
475 159 1 -2.5567 0.176824 -8.58453 12.2235 22.5703 -30.3134
477 159 2 -3.12876 0.973606 -8.27206 2.04891 -6.58314 -0.419183
258 86 2 -1.47501 3.55773 -4.28227 8.25084 4.26563 -10.5672
257 86 2 -2.25696 2.56885 -3.31927 -9.00546 -17.3226 10.3535
179 60 2 -5.57807 2.72524 -8.74052 -34.8282 7.53945 10.0551
370 124 1 -7.19786 2.89591 -8.31227 -42.734 1.23877 -0.0424209
317 106 2 -3.45427 6.54556 -8.63981 -3.33089 -4.91291 -3.20504
371 124 2 -7.1463 3.67008 -7.63337 3.27155 -3.82526 -2.35585
178 60 1 -4.6434 2.4186 -8.93263 33.2627 -18.56 -24.8796
180 60 2 -3.96997 2.87812 -8.31586 3.38742 6.1092 10.3561
123 41 2 -5.61013 7.17461 -7.17392 -10.4714 -10.3211 -3.22278
307 103 1 -3.12093 3.28531 -6.90928 -7.00505 6.65367 1.34731
308 103 2 -3.90037 3.50462 -6.26784 17.628 -3.08231 1.40521
309 103 2 -2.14252 3.48918 -6.58894 -10.591 -3.17292 2.03384
535 179 1 -3.85099 5.98497 -6.96877 5.539 -7.66561 15.7968
536 179 2 -3.49517 5.01428 -7.00915 -3.34637 12.6075 -10.0392
537 179 2 -3.77119 6.22333 -5.95181 3.19286 -0.197063 -16.4045
122 41 2 -7.11513 6.54547 -7.74186 -1.56018 -1.55061 1.92021
121 41 1 -6.58259 6.91864 -6.93818 7.34258 10.6826 13.0899
256 86 1 -1.81955 3.47158 -3.33463 -0.185708 17.2187 -8.00784
436 146 1 -0.709083 7.00091 -5.95057 23.9149 5.03933 -2.99461
474 158 2 -2.61532 5.6453 -3.74117 3.21013 -12.2994 10.9076
18 6 2 -5.5829 1.71715 -5.55839 -6.18527 -21.1373 7.68379
120 40 2 -6.74993 5.33872 -5.77035 -3.52618 -25.3731 -3.02832
118 40 1 -6.75344 4.29174 -5.70613 21.822 26.3081 -14.2243
437 146 2 -1.55059 6.71541 -5.47035 -17.6245 -7.67937 8.13586
473 158 2 -3.09776 7.16599 -4.07326 -3.91516 12.6466 7.69018
472 158 1 -2.92145 6.24639 -4.4898 -0.767097 2.79699 -7.30529
500 167 2 -0.000681117 4.50577 -6.06041 11.8401 21.0255 -0.10022
499 167 1 -0.536507 3.66477 -6.1655 -29.6017 -6.11342 11.5617
602 201 2 -1.40538 0.423126 -3.76717 3.18974 3.23287 4.44632
503 168 2 -6.64531 0.0875876 -3.75716 -7.29104 -15.4073 -0.724441
31 11 1 -3.01443 0.477125 -4.63342 14.7714 -8.95009 15.8622
17 6 2 -6.83541 0.639631 -5.45685 11.4084 0.32668 -7.94792
32 11 2 -3.62897 0.664527 -5.42083 -7.07553 -6.50698 1.95347
16 6 1 -5.81259 0.743491 -5.27911 -9.20557 24.9482 -7.78854
59 20 2 0.17455 1.80255 -8.13391 10.7487 -5.1883 1.46601
352 118 1 6.06113 5.70652 -8.54217 -32.0015 3.72881 -4.81532
384 128 2 0.853501 7.07483 -6.94806 -24.6481 -9.97339 14.8625
60 20 2 1.64552 1.01358 -7.55059 -23.3192 20.9488 -2.08098
8 3 2 3.18577 0.625585 -6.18568 -18.5819 1.52198 37.6088
7 3 1 3.45208 0.110953 -6.99866 13.4342 -2.79065 -51.3524
58 20 1 0.99311 1.83389 -7.50932 14.2566 -17.2996 -1.30753
354 118 2 5.9858 5.38184 -9.51239 0.477131 1.03904 4.388
372 124 2 6.2754 2.75571 -8.50276 32.4945 3.12667 3.40173
471 157 2 5.81669 0.788705 -7.24443 11.7153 -12.8223 39.768
469 157 1 6.17112 0.531081 -6.27788 15.0685 29.852 -45.7382
353 118 2 5.05483 5.83928 -8.24639 26.3607 -6.28925 1.48812
375 125 2 0.483577 2.05957 -3.68407 -11.5516 -6.6531 5.74379
119 40 2 6.9158 3.90315 -5.30378 -13.5101 -2.9722 13.1843
470 157 2 5.41819 0.283248 -5.67443 -20.4882 -16.6717 6.15202
413 138 2 3.66566 2.70717 -8.13499 22.531 -9.52546 -11.9407
501 167 2 0.0826392 2.8893 -6.39043 11.3781 -9.13056 -8.51174
412 138 1 4.37811 2.06587 -8.55001 -22.6267 7.88427 7.57025
414 138 2 4.00376 1.1142 -8.34577 9.54855 8.94771 -0.17445
86 29 2 5.64795 1.98451 -3.31873 -3.88451 5.04082 26.5328
549 183 2 2.6857 5.62722 -8.41251 -1.08187 6.5029 4.52414
87 29 2 5.87905 2.08811 -4.83554 4.06973 -0.353648 -20.0046
85 29 1 6.26856 2.45015 -3.98727 2.46192 3.72802 -11.6974
547 183 1 3.37943 5.55455 -7.66515 10.5917 -7.35815 -2.26124
548 183 2 2.92892 5.7481 -6.76348 -1.00667 -4.00071 -2.70719
280 94 1 1.82252 5.19639 -5.12036 -6.53158 -13.5377 -9.37245
282 94 2 2.19115 5.48071 -4.1921 1.84869 -5.6945 -0.547275
281 94 2 1.55639 4.19207 -5.06301 9.13383 15.9738 7.84394
275 92 2 1.98213 1.49441 -4.31029 2.60045 -9.35863 1.21449
274 92 1 2.42955 0.574268 -4.57075 15.1451 -24.6234 -7.33739
373 125 1 1.30215 2.65489 -3.82055 1.56494 23.0779 11.2673
193 65 1 -6.00023 -3.22193 -3.08327 -29.4009 -9.08369 -19.7255
158 53 2 -4.65147 -3.66083 -1.84083 -7.4338 -6.60828 5.52876
54 18 2 -3.39666 -5.11559 -2.53645 5.9101 -13.7159 8.19002
159 53 2 -5.11443 -4.27741 -0.396322 -7.75094 -5.40024 2.9904
157 53 1 -4.30617 -4.19311 -1.02847 8.75848 11.7748 -11.9962
298 100 1 -0.809844 -7.16169 -0.146893 6.1222 -35.1995 -0.586297
576 192 2 -0.0611905 -2.25151 -1.72395 -32.104 6.15234 -5.26654
565 189 1 -3.01064 -3.47462 1.34678 -1.76419 -1.91992 -15.0876
566 189 2 -3.27938 -3.71602 0.362594 4.10704 1.81247 22.1115
136 46 1 -7.02371 -0.730747 2.64587 -3.83019 10.813 -25.6298
504 168 2 -7.20386 -0.482819 -2.3207 -4.22897 -2.57209 -14.4286
209 70 2 -2.90856 -1.74894 -1.51092 -6.80759 2.66916 12.2725
498 166 2 -7.15253 -1.57703 -0.990529 -1.46894 1.89777 12.5886
210 70 2 -2.17413 -2.18687 -2.90248 5.27189 8.76935 -6.12933
208 70 1 -2.04904 -1.65576 -2.02405 11.9299 -9.28715 -2.27582
496 166 1 -7.0526 -0.635364 -0.600854 1.98532 -10.4662 14.4908
10 4 1 -6.78516 -4.63483 0.155163 -31.0405 -1.75714 -6.92575
11 4 2 -7.0903 -5.44895 0.725713 9.96594 4.75229 -3.26812
506 169 2 -6.81473 -7.00014 2.3209 10.9747 -13.7926 15.3481
405 135 2 -3.23374 -3.49503 2.99399 -0.756773 -6.9197 2.52754
567 189 2 -2.01401 -3.69967 1.53094 -0.634432 2.20455 -7.83078
98 33 2 -0.19717 -7.15279 3.01942 -0.463759 2.38925 -12.0511
598 200 1 -0.324584 -3.98056 1.50859 1.80233 12.4071 10.3996
600 200 2 -0.0460927 -4.45634 0.648635 0.988014 -11.5669 -10.0057
497 166 2 -7.05616 -0.687925 0.44709 -0.590457 3.42567 -21.5923
211 71 1 -0.186644 -0.732425 2.49368 1.97439 3.4574 12.9355
212 71 2 -0.848819 -0.0985566 2.95475 -2.8102 -2.7938 -6.8286
320 107 2 -5.88006 -6.75672 -1.59505 -1.78987 4.39944 -2.0525
51 17 2 -3.77536 -1.3242 2.54384 5.14151 5.00612 -3.00875
49 17 1 -3.22634 -0.470209 2.66946 -10.86 -13.7778 -8.22287
288 96 2 2.97443 -3.30189 -2.71082 5.60363 -1.27455 1.84719
138 46 2 7.00249 -0.00415095 3.20262 4.02231 -7.77219 5.2241
574 192 1 0.889788 -2.47158 -1.53248 21.0457 -21.3221 7.0948
575 192 2 0.890627 -3.43481 -1.08464 2.43642 20.8627 -10.2618
260 87 2 0.57447 -0.913215 -0.518048 13.5155 -9.14622 -0.857686
505 169 1 7.13044 -6.93555 1.48565 -20.501 17.6845 -17.0033
512 171 2 5.30035 -6.29979 2.8484 -10.6394 15.054 13.0622
88 30 1 5.43877 -3.34362 -0.496223 12.8344 -24.5837 -6.16516
89 30 2 5.10818 -3.46685 -1.47684 -6.86026 4.83254 5.34669
90 30 2 4.95624 -2.55078 -0.0891819 -5.8872 20.8368 3.03034
97 33 1 0.338304 -6.27137 3.12092 1.79054 13.607 6.23073
614 205 2 2.92401 -2.23246 0.71461 -12.5916 6.38475 12.8731
615 205 2 2.71838 -3.77549 0.90535 -11.1875 -6.48503 9.94029
613 205 1 2.33243 -2.88909 1.26676 22.4997 0.870868 -18.6554
635 212 2 1.76241 -5.27893 -0.56496 27.3458 0.684637 8.21158
599 200 2 0.40096 -3.24556 1.52166 -4.79459 -0.746484 12.1458
47 16 2 3.25749 -0.924857 -0.837465 12.5427 -0.364584 13.1542
48 16 2 4.10135 -0.157646 0.409916 -3.3028 -9.67165 -4.45533
46 16 1 3.90969 -1.07704 -0.0480975 -13.0852 8.18672 -6.95569
636 212 2 0.276946 -5.8026 -0.785314 -13.7429 -4.76209 6.6903
634 212 1 0.815145 -4.94519 -0.624814 -13.4814 -3.77921 -18.213
398 133 2 4.23459 -4.5468 -0.0941414 -5.59387 -20.0807 3.78704
12 4 2 6.80214 -4.22438 -0.186791 27.298 -0.837649 10.4041
99 33 2 0.00626448 -5.52829 2.48429 2.19797 -7.31484 -1.53563
213 71 2 0.0944557 -0.305628 1.60339 1.99109 -4.19121 -0.336734
286 96 1 3.9813 -3.47838 -2.66381 -6.11637 1.60266 -13.4973
397 133 1 3.48164 -5.21127 0.210333 8.24638 -6.56733 -0.79341
399 133 2 3.78017 -6.20967 0.242681 2.14181 25.0852 -6.10937
513 171 2 3.78401 -5.57609 2.96821 -4.68917 1.08821 2.02705
582 194 2 2.91173 -2.24432 2.8137 2.85894 -12.8945 -2.85496
601 201 1 -0.595248 0.616859 -3.15386 1.16862 -8.52325 7.04966
299 100 2 -0.316622 6.4919 0.22487 -15.0369 29.5918 -4.67398
300 100 2 -1.78323 7.04109 -0.29938 9.33682 6.16565 -0.0807584
4 2 1 -1.18406 6.16897 2.54491 23.9877 -24.6332 9.40219
603 201 2 -0.675518 0.0440353 -2.29196 -4.46409 10.8736 -18.4862
563 188 2 -2.60618 0.192442 1.1684 8.34625 7.78199 1.80506
562 188 1 -2.04102 0.767572 0.505938 -18.572 12.2052 -9.37741
296 99 2 -3.68265 4.53088 -1.21659 3.71703 14.7759 1.98676
297 99 2 -4.31456 6.14493 -1.2337 -0.795913 -6.57707 -4.79166
295 99 1 -3.53356 5.53251 -0.978679 -3.46479 -9.45587 3.49311
646 216 1 -6.78924 3.23187 -1.68311 8.82498 57.476 16.2654
648 216 2 -7.21131 3.415 -2.60117 -5.18223 -12.6935 0.39388
20 7 2 -0.570814 4.29689 -2.5688 12.8905 -4.34657 7.64962
647 216 2 -6.62577 4.16238 -1.20523 -12.5727 -38.4131 -18.6594
261 87 2 -0.48752 0.175593 -0.0651951 -22.7765 15.3162 8.47529
278 93 2 -3.77295 5.27844 0.725111 3.51921 -1.19222 8.48797
277 93 1 -4.00571 5.02462 1.70413 1.4013 24.0588 -2.72984
279 93 2 -3.939 5.85427 2.3328 5.3509 -15.7286 -7.36487
168 56 2 -6.02606 2.97788 0.431021 -3.29191 -11.0234 -47.9867
167 56 2 -5.08026 3.94571 1.49321 8.47749 -0.00072734 -6.20053
166 56 1 -5.82691 3.24322 1.34322 -12.757 3.1904 58.9703
531 177 2 -4.74869 1.65276 -0.950208 0.267586 -9.01867 5.96288
564 188 2 -2.62954 1.55609 0.163494 12.148 -16.7904 7.3317
310 104 1 -0.578682 3.79024 0.790706 6.62751 10.1729 -15.3595
21 7 2 -0.0303455 4.47898 -1.00222 9.18604 -5.26055 -26.476
529 177 1 -4.29752 2.51076 -1.23058 27.8156 -4.76255 8.28635
312 104 2 -0.50404 2.79996 0.959665 -3.77277 -10.863 4.72275
311 104 2 -1.18505 4.22664 1.48381 -0.21468 2.22059 3.93132
530 177 2 -4.99711 2.95935 -1.79038 -19.5051 7.92961 -11.2286
321 107 2 -6.40783 6.82017 -2.8581 -0.276417 11.0358 -10.0318
319 107 1 -6.25472 6.83341 -1.84893 4.45543 -13.1011 18.5442
6 2 2 -2.07803 6.65012 2.58115 -13.3505 -4.63409 12.6409
259 87 1 0.51257 0.0115508 -0.0999719 11.7189 -1.03199 -8.85872
507 169 2 7.03877 6.753 0.879785 5.86728 -4.7987 8.61291
303 101 2 1.61125 1.56361 -0.708212 -0.181689 3.21695 1.66075
301 101 1 2.1491 2.44475 -0.696882 -28.0212 15.3383 18.1381
604 202 1 3.96759 1.5574 0.890228 25.7461 -18.8143 19.3254
606 202 2 4.79438 2.14393 1.09564 0.228416 3.84482 3.01827
374 125 2 1.44458 3.16866 -2.92731 -6.23198 -0.692867 -10.4538
19 7 1 0.289192 4.48684 -2.00467 -23.0243 9.30477 32.6557
153 51 2 2.59126 6.84207 -2.81509 7.56798 -32.9651 -5.31972
152 51 2 2.07644 5.51235 -2.02455 -6.80017 -14.2258 2.44657
302 101 2 1.66392 3.0886 -0.0152567 15.6839 -18.6951 -25.8739
605 202 2 3.3847 2.04418 0.214598 -16.9977 7.89111 -11.9283
588 196 2 4.92261 3.84193 2.38598 12.0314 -9.89745 -24.9049
231 77 2 4.98804 1.72052 -1.15205 -7.74788 -1.87365 -22.0005
151 51 1 2.78272 5.80872 -2.68824 1.76864 39.874 1.59613
229 77 1 4.5982 1.65641 -2.11577 -11.795 -0.710494 18.3768
230 77 2 3.58945 1.9086 -2.11239 17.9108 -1.38833 4.13217
544 182 1 5.43973 6.77537 -1.47913 9.73254 0.796554 5.22885
545 182 2 5.07232 6.23326 -2.27121 4.34066 4.2521 8.77746
546 182 2 6.47525 6.80575 -1.39046 -15.5821 -2.89412 -12.1247
587 196 2 6.50845 3.664 2.22622 9.22651 -6.02383 -9.56425
586 196 1 5.63634 3.48519 1.71999 -21.1173 16.7222 32.5695
328 110 1 2.39354 2.9509 2.98791 28.1816 -11.0616 10.6977
330 110 2 3.01811 2.24681 2.56236 -10.8917 6.49496 -4.50051
137 46 2 -6.59101 -1.4347 3.22571 -2.58572 1.12466 11.3555
404 135 2 -2.65743 -3.41497 4.55667 24.8112 12.7108 9.57627
125 42 2 -6.25462 -6.29362 4.65697 -6.05404 13.0373 14.3529
403 135 1 -3.38899 -3.7775 3.98291 -31.8393 -7.96222 -9.25458
578 193 2 -3.37297 -6.52819 3.88116 2.45421 1.73593 0.180363
400 134 1 -6.96261 -5.2162 7.33692 0.779463 -16.639 -10.7221
401 134 2 -6.94885 -6.25397 7.3594 -2.14174 13.7253 8.10703
73 25 1 -0.393432 -2.55268 7.89457 4.37777 24.7527 0.706763
402 134 2 -6.75109 -4.91465 6.36641 0.946551 2.65923 6.16782
245 82 2 -4.47887 -2.80023 5.99498 8.24859 -0.615341 3.09674
254 85 2 -6.91732 -3.99998 4.17306 -14.53 -2.30616 8.16032
253 85 1 -6.26647 -4.54175 4.75508 -7.07408 2.78578 -9.73019
244 82 1 -4.52867 -2.73079 7.00988 -14.2595 -6.26261 -0.491728
255 85 2 -5.38516 -4.18155 4.42117 22.7317 -1.49649 1.0565
246 82 2 -3.93913 -2.04858 7.4589 11.8046 10.4374 -3.7642
527 176 2 -2.16624 -7.1953 7.8866 -7.47157 -0.499265 22.6674
114 38 2 -5.16471 -2.97721 9.16665 -15.3911 -17.0686 30.4288
494 165 2 -1.093 -1.57163 5.56476 2.88125 4.39985 5.70058
495 165 2 -0.589432 -1.77605 3.95302 -7.92819 -1.7883 4.684
493 165 1 -1.09881 -2.18973 4.75908 2.23902 -0.581461 -14.0464
486 162 2 -0.163764 -5.13755 4.30518 5.75672 -7.51233 2.23267
484 162 1 -0.436993 -4.70655 5.19805 2.29846 -27.8257 10.7154
485 162 2 -0.649455 -3.73766 4.97808 -4.16579 22.7426 2.15238
594 198 2 -5.55209 -1.30969 5.97128 0.0716477 -2.31439 9.49147
592 198 1 -6.04443 -0.694847 5.33597 7.84716 -6.29913 -4.86221
434 145 2 -2.19097 -0.197308 8.3016 -20.0361 5.36523 -15.7882
50 17 2 -3.30606 -0.18162 3.64083 5.46948 9.12004 1.81318
528 176 2 -1.43426 -6.78023 6.49461 -3.59762 -17.7227 10.9281
66 22 2 -4.83181 -6.13944 9.10819 7.03683 15.9251 -10.9056
64 22 1 -5.2211 -7.01514 9.39674 3.53685 -11.92 6.47661
339 113 2 -2.29972 -6.34441 9.54642 -1.39734 23.1703 -4.83978
322 108 1 -2.64692 -4.8327 8.67466 -2.08465 -29.4867 -11.6046
323 108 2 -2.38821 -4.61228 7.72293 1.91788 5.83626 -5.06848
324 108 2 -2.61229 -3.97119 9.20093 4.1036 14.9624 16.5329
511 171 1 4.69498 -5.6645 3.40566 18.4453 -13.0531 -19.1524
74 25 2 0.335431 -3.26978 7.85304 -1.87487 -7.57908 0.2772
251 84 2 0.926103 -4.96757 9.52796 -0.92727 0.721953 -12.7784
160 54 1 5.90733 -3.0843 3.74488 5.59817 -1.59348 0.934936
162 54 2 5.04515 -2.55061 3.64085 -9.94868 21.1565 0.528085
96 32 2 0.410668 -4.92934 6.80199 14.3653 18.0151 19.8441
75 25 2 0.0681373 -1.62654 7.68924 -9.71894 -20.7736 -1.24053
272 91 2 6.48462 -2.57315 7.48176 10.2527 -4.12978 36.8175
580 194 1 3.49302 -1.88823 3.58269 -22.8472 43.5098 -4.17841
77 26 2 4.6731 -1.06745 6.74604 34.0165 -21.572 -8.44521
76 26 1 3.73694 -0.750566 6.90958 -37.8241 17.0183 9.90444
294 98 2 0.832908 -7.08181 5.69262 12.9343 -6.46065 -10.1578
225 75 2 5.97283 -2.05278 5.18706 -5.64111 -19.8911 -6.53226
224 75 2 6.69722 -0.953489 5.95867 15.0367 7.79259 5.09524
223 75 1 6.06163 -1.7237 6.14821 -2.62803 5.61615 0.457891
581 194 2 3.09975 -0.924256 3.69929 19.9341 -29.5433 3.89952
27 9 2 3.67344 -7.20031 8.85072 -37.444 2.69385 -1.20313
94 32 1 1.02595 -4.89461 7.65831 -21.1219 -24.9764 -33.2799
95 32 2 1.43673 -5.83793 7.56013 7.07638 11.4542 12.629
273 91 2 7.17379 -3.86283 8.25764 2.62797 -1.04164 -3.87547
25 9 1 2.63874 -7.23755 8.62775 45.3204 1.87491 -1.34567
161 54 2 5.47969 -3.97132 3.52576 3.55926 -26.7304 1.66942
289 97 1 5.19 -6.27382 9.10152 13.7524 -7.55479 -3.26048
271 91 1 6.78756 -2.92527 8.44601 -15.8029 9.50805 -25.9647
464 155 2 1.7293 -0.767568 6.3555 17.2076 -13.1739 -1.16724
290 97 2 5.33411 -5.49746 8.44465 2.59337 -3.93873 1.29763
463 155 1 0.899963 -0.499411 6.85671 -4.89239 12.1675 -4.42665
78 26 2 3.69392 -0.321678 7.83012 1.36413 0.058715 5.19853
291 97 2 5.89117 -7.02307 8.84683 -13.4721 19.7359 0.0817151
5 2 2 -1.07187 5.37548 3.23366 -11.1739 14.7003 -15.5651
235 79 1 -0.904252 3.90447 4.12747 -2.83184 -4.27205 -27.0763
236 79 2 -0.416324 3.00614 3.94221 -3.64786 12.151 8.66914
124 42 1 -6.25387 7.22522 4.39385 12.359 -14.5733 -37.6304
102 34 2 -6.95152 6.24393 8.76734 -15.5026 22.259 -24.0562
101 34 2 -7.13647 6.0823 7.14772 -2.41948 2.15678 6.4375
577 193 1 -3.57689 7.02016 3.58773 -38.9717 1.03285 -1.34436
579 193 2 -4.60656 6.86874 3.7815 28.1666 6.12208 0.42533
126 42 2 -6.44711 6.51028 5.08547 -4.54561 0.00815391 16.6967
593 198 2 -5.80541 0.280038 5.52334 -4.52127 5.64276 4.81429
468 156 2 -3.08643 2.55918 4.52312 2.03119 -12.8375 -9.82554
466 156 1 -4.02424 2.81392 4.84039 -8.69942 43.7035 4.35632
467 156 2 -3.89222 3.80223 5.14685 -6.1227 -19.2591 1.64328
450 150 2 -6.25008 3.4095 3.31077 9.75889 -6.45516 -11.4474
238 80 1 -3.50772 4.90949 6.72941 12.4488 22.0523 -15.4553
240 80 2 -3.21339 4.57318 7.64931 -2.74593 -12.296 11.0343
239 80 2 -2.77299 5.63328 6.55009 -19.669 -10.3715 2.27272
448 150 1 -7.04366 3.52399 3.93369 -10.4234 11.7269 5.76611
232 78 1 -6.48663 4.98177 6.24925 20.2316 10.4412 4.38767
233 78 2 -6.49473 4.39472 5.41796 -11.5989 -11.8096 -14.5695
234 78 2 -5.52076 4.86973 6.60499 -3.23935 1.80209 2.47744
91 31 1 -6.06287 1.9377 6.27187 22.0968 -0.404663 -20.0612
92 31 2 -5.48898 2.08377 7.1238 1.04238 -2.10908 4.41338
93 31 2 -5.42854 2.16948 5.45322 -9.80608 0.879167 24.2947
190 64 1 -2.2259 3.78788 8.87699 12.7483 3.80079 5.73686
192 64 2 -1.94567 2.99304 8.29021 0.58109 3.28423 9.46282
435 145 2 -1.85164 0.926218 7.28549 6.39399 4.95951 -3.52198
433 145 1 -2.6116 0.256516 7.45496 10.6944 -19.3936 24.2631
526 176 1 -1.67077 6.91639 7.10602 16.2928 15.9675 -40.5927
40 14 1 -2.03314 1.20312 4.66501 -24.2897 -16.7253 -5.60278
42 14 2 -2.59134 1.31826 5.51631 7.76172 -4.93384 3.78123
428 143 2 -3.93195 1.2259 8.46578 -13.0806 17.4973 -12.5127
237 79 2 -0.732795 4.24553 5.0678 8.45602 -3.1 16.8355
442 148 1 -0.523815 1.83872 7.53109 -18.9755 40.1299 -27.9542
443 148 2 -0.617539 2.74578 6.998 11.4928 -21.6793 15.0146
110 37 2 -0.674399 5.34831 6.94643 -5.86523 5.25968 5.73203