ITEM: TIMESTEP
18500
ITEM: NUMBER OF ATOMS
648
ITEM: BOX BOUNDS pp pp pp
-7.2748126407450764e+00 7.2748126407450764e+00
-7.2748126407450764e+00 7.2748126407450764e+00
-1.6166250312767382e+01 1.6166250312767382e+01
ITEM: ATOMS id mol type x y z fx fy fz
31 11 1 -1.14479 -2.55469 -11.4723 22.2744 -11.6828 2.7641
139 47 1 -5.87817 -2.85266 -14.5274 2.0818 4.05901 28.4087
140 47 2 -6.48676 -3.09782 -15.3003 -10.0375 -5.10059 -15.9297
141 47 2 -6.241 -3.37964 -13.7259 6.5037 4.77676 -7.89024
555 185 2 -1.98914 -3.78467 -12.7783 8.2679 -9.1398 -0.653992
553 185 1 -2.14686 -4.35276 -13.6201 0.494295 9.25587 16.9523
207 69 2 -4.35163 -6.9444 -12.0619 4.36093 -5.94604 -9.49523
554 185 2 -2.66286 -3.72989 -14.2252 -11.3146 -2.23447 -13.7294
323 108 2 -5.94849 -1.00655 -14.2509 5.05529 -6.84868 -4.24735
205 69 1 -4.93529 -6.91948 -11.2217 8.1503 -11.6515 -3.88038
206 69 2 -5.1829 -5.94851 -11.2419 -7.78547 18.979 8.53595
514 172 1 -1.09437 -2.37653 -15.4929 8.07859 25.5311 0.738569
515 172 2 -1.27266 -3.36735 -15.3142 -0.00569308 -4.47274 -15.8095
540 180 2 -3.12469 -5.79194 -13.4311 -9.86252 -10.2137 -12.4664
538 180 1 -3.66993 -6.66029 -13.6522 4.23917 10.3182 19.3445
142 48 1 -4.77174 -3.8954 -11.7131 -5.3141 4.44045 -10.8565
32 11 2 -0.428458 -2.86436 -10.7718 -13.8398 12.896 -12.3841
143 48 2 -4.56038 -3.14658 -12.3984 -10.0822 -14.1808 15.3023
144 48 2 -5.70039 -3.81233 -11.272 12.1519 11.9957 -2.26663
582 194 2 -0.990492 -1.2316 -12.5238 -2.30026 -5.74407 -1.7488
581 194 2 -0.949554 -1.01672 -14.1995 -3.41063 -15.5689 -11.8515
580 194 1 -0.717878 -0.613864 -13.3011 5.66665 17.1318 10.6121
33 11 2 -2.04097 -2.62818 -11.0154 -16.2836 4.79352 12.0124
322 108 1 -5.78493 -0.075529 -13.8608 -5.50797 -6.1536 2.89697
469 157 1 -6.79467 -2.21567 -10.1645 -22.3128 -7.66154 -8.436
81 27 2 -4.16049 -1.48009 -10.2174 -0.435699 0.202496 12.4054
173 58 2 -6.72088 -7.18177 -15.2144 10.1904 -9.31355 6.33741
162 54 2 -1.11306 -5.77453 -15.8475 6.38743 5.20021 -15.7022
309 103 2 0.746523 -3.8665 -9.89675 12.3621 4.60248 3.97549
490 164 1 5.87083 -5.04513 -13.3276 1.35968 5.26544 6.80274
491 164 2 6.22439 -4.97144 -14.2867 -3.03169 -5.22805 4.4096
119 40 2 0.549985 -5.28197 -11.9187 2.04553 -1.41626 25.5845
118 40 1 0.60049 -5.50907 -10.8956 -4.65175 16.2386 -36.2092
120 40 2 1.06747 -6.41862 -10.817 16.0799 -2.77664 1.91087
236 79 2 0.0189407 -6.47882 -9.72636 6.71699 6.56881 4.71606
492 164 2 5.69986 -5.99834 -12.9746 1.54037 0.338926 -8.43374
171 57 2 1.42554 -3.19763 -13.1741 14.1662 -5.98362 4.84095
170 57 2 1.03651 -1.80467 -12.4581 4.22031 4.37893 -2.24785
169 57 1 1.84266 -2.31351 -12.8272 -11.7638 9.38654 9.62277
449 150 2 1.25796 -5.39261 -14.2516 1.28117 4.76087 -9.38173
12 4 2 5.5407 -3.84834 -11.9265 -0.791418 0.055573 -7.28806
10 4 1 5.20698 -3.0321 -11.399 2.38638 -1.97525 9.30168
11 4 2 4.19554 -3.098 -11.3128 -1.16617 -1.70708 -3.06002
450 150 2 0.668883 -3.75467 -14.4045 -0.601171 -17.3566 -7.86966
448 150 1 0.992499 -4.52229 -13.7975 -8.88422 1.91057 7.86916
464 155 2 5.13979 -1.59163 -10.2736 2.20549 -8.89446 -5.98091
192 64 2 2.13255 -0.147145 -15.1754 0.373436 -7.00747 -10.5516
383 128 2 5.31634 -1.50407 -14.9845 -4.81835 8.4914 8.98173
471 157 2 6.91759 -2.36411 -10.7669 15.9745 3.55725 8.45011
52 18 1 6.37018 -0.243089 -12.5116 -2.76875 3.72041 20.9116
15 5 2 1.6865 -0.320905 -10.0456 15.403 7.31424 9.16441
456 152 2 3.26732 -1.55898 -13.2052 -17.508 -14.4707 5.09075
454 152 1 3.93681 -0.840342 -13.4644 16.019 17.6397 -8.04077
53 18 2 6.04041 -0.135303 -11.5216 9.7569 -4.91112 -19.631
54 18 2 5.54322 -0.572311 -13.0355 0.55235 2.21055 2.02928
258 86 2 2.39516 -6.98666 -14.6503 27.2709 -2.49399 1.95637
257 86 2 4.11033 -6.72679 -14.2434 -30.9469 -3.89669 -9.21339
256 86 1 3.32728 -6.60878 -14.9329 -0.662473 -5.2738 13.5263
463 155 1 5.15342 -0.590818 -10.0777 -23.1049 14.3099 2.26849
465 155 2 4.15998 -0.270183 -10.035 12.0865 -1.88334 0.0493081
612 204 2 3.85941 -4.39688 -15.8412 -2.65082 -6.60098 -2.56996
384 128 2 6.23679 -0.12563 -15.3521 -6.23429 -6.37352 -4.96135
382 128 1 5.9272 -1.07613 -15.6781 10.8523 -4.87884 4.12776
539 180 2 -3.01936 7.2241 -14.0635 6.43208 0.282578 -11.4247
180 60 2 -3.63976 6.43489 -10.0175 -7.8635 -2.08485 -6.71127
542 181 2 -3.26651 1.06009 -15.6102 -9.92661 4.65935 0.420733
98 33 2 -5.67205 6.13386 -11.8624 -8.74372 -0.351361 -2.61144
64 22 1 -1.73506 6.80768 -15.4389 6.34377 -4.0702 -4.2344
65 22 2 -1.94852 5.80773 -15.3097 -0.482368 2.67231 0.0237008
324 108 2 -6.55211 0.00230838 -13.1697 -2.30241 4.60889 -1.81936
60 20 2 -6.93619 1.50652 -15.1168 20.0515 -15.8285 5.48041
482 161 2 -2.60245 3.03792 -14.6843 -3.80503 -2.44478 1.00578
481 161 1 -2.6007 3.98701 -15.0622 5.83166 4.53527 15.8834
584 195 2 -1.40632 5.00493 -12.3633 1.05144 -16.8984 -6.94452
583 195 1 -0.49051 4.7067 -12.7216 5.42521 -1.40341 11.4906
294 98 2 -0.715648 1.34184 -13.6925 3.45351 -6.36714 6.18903
292 98 1 -0.195052 2.16613 -13.3764 -8.05014 3.17585 -2.05163
97 33 1 -5.98974 5.23312 -12.2634 7.19543 -10.0128 6.05105
99 33 2 -6.48746 5.3444 -13.1536 3.13341 11.7295 -1.45771
423 141 2 -6.70848 3.81607 -16.0029 6.00865 4.06982 -14.0163
227 76 2 -7.14192 4.17818 -10.9998 -5.77056 11.3762 2.32006
201 67 2 -3.26836 1.27137 -12.8527 -5.99983 7.06894 -12.7336
624 208 2 -4.42218 4.82038 -12.6089 2.89022 -2.19058 10.8108
622 208 1 -3.39977 4.61912 -12.5935 -6.29817 9.89171 -7.05339
623 208 2 -3.19682 4.53562 -13.6059 9.05144 -5.61159 -0.379905
483 161 2 -2.53436 3.9248 -16.0976 -8.00394 1.57935 -3.75787
585 195 2 -0.394299 3.70208 -13.0175 -13.305 10.0753 8.73555
641 214 2 -0.0662597 7.07309 -14.2431 7.22139 -13.7483 -5.65016
179 60 2 -3.04706 5.09756 -10.9111 -10.9701 10.2714 15.4226
178 60 1 -3.19112 5.52178 -9.9692 13.9587 -3.99985 -10.3227
199 67 1 -3.53374 1.28653 -13.8579 16.6541 -9.67285 8.7438
200 67 2 -4.32657 0.612752 -13.9424 -4.3794 10.6826 3.48714
270 90 2 -4.19321 2.66509 -10.6275 -2.87386 -4.53781 7.14537
268 90 1 -3.41876 2.33193 -11.184 -0.256543 -9.56666 3.73747
269 90 2 -3.19733 3.12361 -11.783 3.71901 8.37669 -9.72754
174 58 2 -5.22737 7.17709 -14.4536 16.1153 10.5075 4.00395
172 58 1 -6.14501 6.78314 -14.5983 -24.4729 2.33638 -9.35069
145 49 1 4.72493 6.89839 -12.5418 2.78545 11.2491 -0.283661
146 49 2 4.49173 7.07322 -11.5576 -2.11646 -4.49543 -4.83353
147 49 2 4.84309 5.89816 -12.7022 0.633845 -5.12981 2.28425
13 5 1 2.51549 0.238148 -9.77079 -8.37893 -24.2052 -6.80267
190 64 1 2.01052 0.853088 -15.261 -2.59127 19.0731 28.544
14 5 2 2.36417 1.16421 -10.1598 -3.96666 10.9846 0.149071
640 214 1 0.735354 6.43679 -14.1213 13.7554 44.539 -13.4495
642 214 2 0.423577 5.77126 -13.4122 -8.36038 -17.6314 7.31015
59 20 2 6.43078 2.44243 -15.2401 -15.7657 7.94204 -5.56423
58 20 1 6.63426 1.45423 -15.3199 -1.43208 8.37481 0.0945512
226 76 1 6.45406 4.31428 -10.6322 11.8772 -14.5204 6.09055
503 168 2 4.13709 3.50149 -13.4707 -10.7111 -6.34724 5.34706
502 168 1 5.0411 3.94911 -13.2841 3.30903 10.9608 12.1201
504 168 2 5.4491 4.15178 -14.1794 15.7943 0.634611 -11.4062
293 98 2 0.760584 2.11265 -13.7217 5.34492 -5.26803 1.20404
210 70 2 0.457144 4.07433 -10.0124 -2.86177 8.50713 -3.79541
455 152 2 3.5182 0.0650639 -13.2435 2.36009 -1.18763 -4.54324
421 141 1 6.9382 4.27998 -15.8692 -21.8179 -1.78877 8.48282
228 76 2 5.84656 4.13117 -11.4196 -9.87724 -0.129031 -12.3131
385 129 1 2.3925 7.01187 -10.0948 15.5653 6.65598 13.553
476 159 2 2.26059 2.61382 -14.5779 3.25779 -5.26455 0.39798
477 159 2 2.02099 4.00294 -13.6097 -3.58562 -1.18801 -1.12716
475 159 1 2.53491 3.13021 -13.737 1.54772 7.07041 -0.92969
619 207 1 0.55338 2.18179 -10.5533 -3.39141 -5.76981 -0.51469
621 207 2 0.101411 1.86738 -11.4262 2.43476 7.17505 3.16509
386 129 2 2.01113 6.0887 -9.876 0.998811 -3.83217 -3.86217
620 207 2 0.0225541 1.88089 -9.73736 -3.86137 -1.86662 -2.97039
191 64 2 1.78123 1.24196 -16.1593 -0.643867 -9.74868 -24.1503
522 174 2 3.00217 4.26465 -16.1627 16.5425 6.04696 -10.915
521 174 2 4.47864 4.99089 -15.7079 -7.09283 -5.56648 -13.6783
308 103 2 -0.386279 -3.44218 -8.91282 13.6833 11.3101 7.13563
549 183 2 -2.16196 -3.8462 -8.69734 -24.3812 2.39324 10.6409
548 183 2 -2.45556 -5.57427 -8.30686 1.07004 21.7496 9.35192
547 183 1 -1.88203 -4.81595 -8.71481 22.7298 -13.1506 -16.9166
133 45 1 -2.60441 -6.57991 -6.61663 -2.67562 -17.6687 -28.348
135 45 2 -3.03818 -6.50083 -5.70895 0.148772 10.8602 23.1516
122 41 2 -4.84955 -4.1154 -8.15561 11.009 0.529588 -4.26979
351 117 2 -0.12526 -4.73301 -4.53111 3.73934 -6.41132 -2.2906
349 117 1 -0.725209 -3.94647 -4.30213 -3.61728 14.9776 -3.23008
350 117 2 -0.943883 -3.93469 -3.30774 2.21676 -4.27288 3.62022
104 35 2 -3.98167 -6.54767 -3.97383 -2.13752 -5.02306 9.78646
105 35 2 -3.07665 -5.31757 -3.2996 2.7766 -19.0507 -15.7437
103 35 1 -3.05015 -6.11815 -3.96147 -2.76041 20.7143 10.7857
123 41 2 -4.04515 -3.04782 -7.01414 -11.309 -9.6284 -4.90734
121 41 1 -4.93183 -3.4394 -7.4085 11.5737 13.3076 1.8554
246 82 2 -6.20476 -3.63639 -6.65955 5.8048 -3.3136 6.89703
606 202 2 -3.87747 -1.49416 -3.67697 4.22587 22.2964 16.7015
593 198 2 -1.34341 -0.208592 -3.75414 6.21256 1.58396 -16.0507
602 201 2 -2.19299 -2.96939 -5.27892 -7.57768 8.54938 -9.40487
601 201 1 -2.82508 -2.37323 -5.85144 16.3122 -30.3332 -8.86744
603 201 2 -3.0349 -1.53336 -5.36024 -3.44752 16.3673 13.2018
9 3 2 -6.83809 -4.4767 -3.91469 -3.28811 -8.39098 13.6807
86 29 2 -0.811474 -6.02997 -5.7182 -4.45734 -2.41896 -1.25931
244 82 1 -6.97968 -3.86386 -5.99371 -18.5735 2.58917 11.3423
470 157 2 -7.14151 -1.99713 -9.22766 7.48379 -0.50612 -4.44166
80 27 2 -3.39689 -1.15465 -8.71173 -6.83829 -1.13556 -4.924
79 27 1 -3.4178 -1.7285 -9.55624 9.67222 -4.28831 -8.61501
117 39 2 -6.47133 -1.57516 -4.54546 12.3353 5.28705 -6.32572
115 39 1 -5.55428 -1.80995 -4.12987 -10.936 2.76317 14.3202
307 103 1 0.481079 -3.05291 -9.3192 -21.8821 -30.0448 -11.1945
362 121 2 2.47953 -2.36715 -7.40988 -11.9397 3.33437 5.34824
361 121 1 3.34271 -2.10655 -7.87155 6.63628 8.92643 -8.30533
363 121 2 3.24934 -1.2226 -8.3821 -1.8084 -7.47934 0.056139
634 212 1 5.92302 -5.74512 -6.78511 24.2454 -4.50179 6.70782
20 7 2 3.09089 -3.99749 -6.93023 -2.81795 15.6298 -12.9998
21 7 2 2.87337 -5.25845 -5.88818 0.682337 0.468703 0.367838
19 7 1 3.55144 -4.59787 -6.27413 -5.22623 -15.4986 12.9557
636 212 2 5.09928 -5.22013 -7.05466 -14.2616 10.8056 4.97979
87 29 2 0.121385 -6.13556 -7.05533 0.459681 1.25335 18.5638
259 87 1 1.55441 -2.0929 -5.6085 -15.0965 25.3104 2.79979
261 87 2 0.821605 -2.6914 -5.24445 -2.02656 -14.9837 2.46786
507 169 2 6.62816 -0.237165 -6.39784 -3.67855 0.537148 -0.254163
85 29 1 0.162804 -6.11852 -6.01776 -0.624518 -1.48148 -24.2648
260 87 2 1.15105 -1.16479 -5.39012 11.1466 -10.4538 -4.75703
635 212 2 6.61651 -5.01846 -6.44646 -9.19326 -14.5584 -6.27554
245 82 2 7.25626 -2.96663 -5.61931 1.18665 1.30276 -4.39673
447 149 2 5.36774 -6.61188 -5.25856 -5.68653 0.026826 18.4203
505 169 1 6.83876 -0.924062 -5.66202 2.36858 -9.81281 1.94531
506 169 2 5.98323 -1.09819 -5.12018 -4.18802 7.97044 0.87782
62 21 2 3.57311 -7.02815 -4.32893 1.96466 5.30756 17.4018
61 21 1 2.53407 -6.9514 -4.37299 6.24139 0.352177 -14.4434
335 112 2 5.00716 -6.98513 -7.5833 8.84867 -10.2388 -0.0416855
414 138 2 3.01695 -0.567641 -6.56566 -0.0882962 -12.2839 -5.66498
387 129 2 2.95036 -7.26002 -9.25911 -2.36515 -6.85633 -16.025
229 77 1 4.34099 -0.917754 -4.2582 -22.2089 -18.0483 2.65553
230 77 2 3.84071 -0.339138 -4.94275 4.34297 4.25576 -0.514573
231 77 2 3.65773 -1.63169 -3.93657 14.9164 8.58801 -5.36413
445 149 1 5.09048 -6.96788 -4.31221 29.6209 -4.71192 -26.4692
300 100 2 3.28546 -4.93227 -3.33568 -2.2466 -9.93608 1.44316
299 100 2 3.30272 -3.85167 -4.51653 0.651445 4.61795 -10.9886
298 100 1 3.03883 -3.97658 -3.54453 2.67588 5.19531 9.94218
134 45 2 -2.83917 7.04608 -6.9849 4.24139 4.94526 1.05244
365 122 2 -5.11632 0.0679835 -6.07091 -7.73266 -3.54537 -20.0522
594 198 2 -0.948624 0.255752 -5.3812 -8.67599 -3.35815 -2.67937
592 198 1 -0.607363 0.0745185 -4.43247 4.63774 1.50069 9.422
235 79 1 -0.245538 7.21384 -9.2223 -19.9188 -6.07308 1.15895
364 122 1 -5.08981 0.392317 -7.05716 16.561 3.88334 20.3029
366 122 2 -5.96451 0.26003 -7.5524 -9.76281 -5.68482 0.274805
69 23 2 -5.28022 1.95422 -6.35946 7.23698 -22.6621 -11.4122
67 23 1 -5.41162 2.79648 -5.82447 -4.24291 23.5472 12.9308
68 23 2 -5.97574 3.39792 -6.44791 -0.656758 8.05581 4.18964
569 190 2 -0.404424 2.98546 -5.14596 11.1557 0.591277 5.18196
568 190 1 -1.21523 3.05312 -5.75813 -14.7152 0.688427 -16.6661
570 190 2 -2.04618 3.34931 -5.26458 -4.78516 6.17338 7.98396
342 114 2 -4.32446 3.82775 -4.81505 3.87466 15.7322 15.5452
340 114 1 -3.80132 4.39297 -4.09748 -2.53122 -7.06692 -21.6274
599 200 2 -6.94422 5.70579 -7.43349 6.44521 -20.8654 11.7351
598 200 1 -6.8049 4.69556 -7.23503 -1.04986 25.9692 -12.732
617 206 2 -2.53186 0.636713 -7.30622 11.4805 -6.18987 -1.70636
618 206 2 -1.46776 1.74608 -6.85207 11.9482 6.93607 6.06714
616 206 1 -1.52499 0.766054 -7.14887 -23.7051 -1.50453 -0.216478
44 15 2 -6.13318 6.61103 -3.68125 -2.79417 1.07841 4.56357
43 15 1 -5.35767 7.15746 -3.28424 3.2135 2.86827 -6.89381
237 79 2 -1.20888 7.108 -9.5374 -1.07608 -8.32968 8.39227
480 160 2 -6.68073 4.64437 -4.62875 1.59869 13.7212 3.22229
341 114 2 -4.13468 5.35489 -3.9515 -6.11219 -6.10306 -5.63321
645 215 2 -5.98634 1.82481 -4.09177 -6.56264 2.57816 -0.514271
195 65 2 5.64346 3.58139 -9.21804 -0.388694 8.46708 -9.61259
209 70 2 0.491552 5.6892 -9.27385 -19.318 2.07879 -9.70171
208 70 1 0.878823 4.73956 -9.35217 19.9295 -7.62792 15.2314
128 43 2 1.60193 2.9902 -6.6612 -1.93543 5.8605 -4.99022
63 21 2 2.44198 7.24059 -5.32985 -16.5739 -5.01566 4.73774
639 213 2 0.965372 6.69613 -6.16628 12.607 -6.54657 -2.55076
336 112 2 4.88823 5.8647 -8.04709 -2.77537 22.2011 3.57776
446 149 2 5.85548 6.94083 -4.04992 -10.0813 4.88772 1.24179
637 213 1 1.67918 6.06386 -6.58484 -19.4908 16.886 6.11086
194 65 2 4.17888 3.32146 -8.381 8.56197 4.73434 -0.0627949
193 65 1 5.16876 3.59177 -8.31094 -10.9987 -10.6906 8.52586
600 200 2 7.26738 4.24158 -8.01068 -5.48441 -7.13386 2.18217
638 213 2 1.24343 5.70897 -7.42685 2.3613 -7.45664 -8.29322
334 112 1 4.53467 6.83846 -8.14445 -6.25086 -14.0502 -5.80491
285 95 2 5.76678 0.197401 -8.78892 -7.64269 -11.5317 -19.8559
283 95 1 6.17568 0.675827 -7.99645 11.6974 25.8339 28.2287
284 95 2 5.7703 1.62303 -7.89602 6.33849 -12.618 1.08414
412 138 1 2.97269 0.428398 -6.38514 -2.60837 10.5756 0.275452
413 138 2 2.55176 0.930179 -7.20123 7.3477 -1.80436 14.0656
164 55 2 4.2505 1.65137 -5.63387 0.718387 -8.78714 2.65859
165 55 2 4.892 3.09101 -5.8556 1.90626 16.0785 2.46408
163 55 1 5.0663 2.20858 -5.39588 -2.30558 -6.59485 -6.12523
129 43 2 1.38998 2.95873 -8.32618 2.69272 6.33002 2.01147
127 43 1 1.92481 2.57784 -7.54066 -2.8385 2.32981 -5.90184
647 216 2 0.548118 1.48611 -4.58482 -1.06638 -2.19426 8.12983
478 160 1 7.19324 5.28912 -4.19834 0.0923209 -23.0362 -7.71119
90 30 2 3.19514 5.15271 -6.12518 -15.7257 11.8104 7.63362
479 160 2 6.3548 4.71751 -4.36304 -5.57564 11.4624 6.43408
89 30 2 3.58468 5.13788 -4.41761 -14.8203 1.63178 0.699885
88 30 1 3.78682 4.82608 -5.3628 33.2261 -16.3246 -8.41121
563 188 2 1.65398 3.55264 -3.42698 0.173935 -7.52732 -12.3202
648 216 2 1.83487 1.94648 -5.46448 1.34814 1.15958 12.0718
646 216 1 1.14657 2.29964 -4.78393 1.42283 -11.4408 -11.4161
604 202 1 -3.0994 -0.945947 -3.22022 3.53287 -13.6789 -12.3886
7 3 1 -6.74532 -5.00297 -3.02508 14.5256 -1.05444 -9.99253
45 15 2 -5.68301 -6.44682 -3.00409 -6.54729 -7.2305 -3.9832
116 39 2 -5.76469 -1.85876 -3.1055 3.67033 0.0405161 -7.98072
544 182 1 -0.956399 -4.88425 -1.37525 19.52 29.6561 -1.23502
605 202 2 -3.36716 -0.0207586 -2.82717 -9.99254 -6.01443 0.341875
232 78 1 -3.65386 -0.527536 0.47573 -1.60505 -4.06461 11.3267
91 31 1 -3.61983 -5.83281 -0.342091 7.79674 -16.8096 2.99432
93 31 2 -4.64361 -5.7999 -0.266897 1.8206 3.797 -0.183023
279 93 2 -5.20583 -3.27747 0.168196 -9.00807 -0.577447 -3.68607
546 182 2 -1.1394 -3.90317 -1.05142 -0.105523 -18.0057 -10.1747
545 182 2 -1.66065 -5.49678 -1.01395 -22.2124 -8.70515 5.58973
321 107 2 -2.36134 -1.79617 -1.84139 1.00711 6.4235 -13.8826
92 31 2 -3.44427 -6.84244 -0.308628 0.748127 4.75677 -2.40934
277 93 1 -5.12188 -3.4828 1.15825 2.3494 1.71125 5.2401
253 85 1 -6.26397 -6.70014 0.00237195 -6.6778 30.6657 3.89558
278 93 2 -5.913 -3.97689 1.60357 -8.24964 0.334584 -10.8345
320 107 2 -2.65967 -2.13151 -0.285888 8.01059 5.27835 -12.1462
319 107 1 -1.92228 -2.20869 -1.01766 -14.8573 -12.4157 23.2752
607 203 1 -1.78834 -5.09537 1.99319 -16.1452 -4.31351 -3.13942
608 203 2 -2.22711 -5.38642 1.11183 -1.53392 -2.08323 4.97164
367 123 1 -6.3832 -1.83068 -1.57093 -1.15414 -2.85418 0.961856
167 56 2 -1.32856 -2.2832 0.690251 -9.2573 6.96999 -24.4614
166 56 1 -0.931384 -2.70786 1.50442 15.2382 -2.28474 24.526
168 56 2 -1.06155 -3.73421 1.54033 -10.9397 1.67126 2.62166
254 85 2 -6.50443 -6.17646 0.868574 6.0591 -15.29 -9.54665
255 85 2 -6.78484 -6.21559 -0.727886 1.37998 -4.46369 -5.04946
609 203 2 -2.59587 -4.75173 2.56776 10.6926 2.49864 -2.52586
369 123 2 -6.15454 -1.23696 -0.768768 -3.26948 -1.79051 -5.384
149 50 2 -4.39341 -3.55131 2.45704 22.1072 -11.8169 16.9486
8 3 2 6.92345 -5.20357 -2.53946 -11.2253 5.14317 -3.69974
39 13 2 4.69135 -0.0223035 -2.924 7.83534 3.3025 1.28987
38 13 2 5.60889 -0.212703 -1.5292 -2.59544 0.166349 -3.4021
460 154 1 7.27237 -4.96722 2.12491 -7.35323 -5.36164 -1.0908
462 154 2 7.16437 -6.00161 2.26733 2.45162 11.7962 2.53136
397 133 1 2.55551 -1.95861 -0.730912 -4.00816 -1.97744 -3.61108
399 133 2 1.94678 -2.028 0.0916246 4.34209 3.19702 9.23202
368 123 2 7.15517 -2.04351 -1.61155 5.69682 3.90783 9.21903
96 32 2 4.48794 -1.91937 -1.20013 7.00965 -1.7538 16.0913
398 133 2 2.09638 -2.50507 -1.45492 3.9773 0.621195 -5.78141
484 162 1 6.71761 -0.603101 3.06039 -9.23928 2.71107 7.85196
461 154 2 6.48065 -4.48869 2.57481 6.08298 -2.50257 -3.2105
314 105 2 3.39786 -2.43744 1.99075 13.8135 1.83031 6.06776
94 32 1 5.43961 -1.95538 -0.7862 -1.06922 -2.85076 -13.8516
95 32 2 5.42363 -1.96775 0.235341 -5.73838 2.11235 1.78187
381 127 2 0.544369 -2.41242 1.75933 -3.69851 2.85123 -4.86886
379 127 1 1.47727 -1.96558 1.86045 17.6446 -2.34175 -1.61003
380 127 2 1.41048 -1.54566 2.78445 3.72819 10.6196 6.8613
315 105 2 4.4208 -3.3813 1.30726 3.19004 -23.9704 -7.66914
313 105 1 4.41055 -2.66567 2.01254 -24.2656 27.6274 8.09462
374 125 2 0.264378 -6.26035 -1.94489 -2.73367 -0.00678223 -7.5464
373 125 1 0.774643 -7.12733 -2.16999 -1.98504 14.5523 6.69351
375 125 2 1.27739 -7.01438 -3.06207 6.17256 -3.15404 -5.01303
524 175 2 4.65369 -5.01339 -1.64176 11.0616 -4.54193 -4.4766
523 175 1 5.49735 -5.59299 -1.55195 -6.25562 6.41336 10.1277
525 175 2 5.28584 -6.46244 -1.0483 -3.71921 -6.0701 -3.89334
249 83 2 4.39978 -5.28514 0.185349 -4.58625 -4.37794 0.413782
248 83 2 2.73502 -5.33287 0.613023 -4.5373 -14.5873 -5.50823
247 83 1 3.65901 -4.93454 0.791415 24.995 17.8904 5.71218
5 2 2 4.0974 -5.99608 2.64721 6.95566 15.2049 13.7146
159 53 2 1.57345 -6.77094 -0.660895 1.01179 -6.13773 5.06531
158 53 2 0.917784 -6.67132 0.879412 4.33937 -3.11075 -0.989311
157 53 1 1.79285 -6.67191 0.348498 -14.1818 -2.05403 -4.32498
303 101 2 -2.96745 4.33713 -2.74467 -7.86379 -7.94025 1.34321
233 78 2 -3.3165 0.0192163 -0.313673 -4.28681 7.9623 -3.01622
420 140 2 -4.58708 1.7832 -2.27394 11.2003 -28.9536 8.65615
418 140 1 -3.66939 1.40219 -1.92543 -12.4726 45.619 -13.1411
234 78 2 -4.01668 0.086836 1.22157 3.85441 -2.00048 -13.7389
496 166 1 -7.19301 6.9867 2.46931 -17.8684 -29.6549 24.5781
302 101 2 -1.86788 4.69113 -1.53355 -12.8776 -10.8568 -2.40847
301 101 1 -2.7215 4.11558 -1.75789 29.4918 14.4699 9.02197
644 215 2 -6.99882 2.26638 -2.7854 8.62788 -13.5386 -8.88727
17 6 2 -3.83596 5.04309 -0.736986 2.65405 -3.49983 6.83372
561 187 2 -5.39528 2.24925 0.868928 -12.0288 7.86327 -5.9519
567 189 2 -0.0319387 6.18663 -1.49918 6.65528 5.02609 -2.86236
565 189 1 -0.510059 5.56972 -0.824292 -24.5266 -6.79485 -6.57407
560 187 2 -3.73685 2.51156 1.18167 7.79199 10.086 -5.16388
559 187 1 -4.58926 2.03334 1.46972 21.1234 -31.5358 24.8267
589 197 1 -2.33685 3.71791 0.962623 4.81387 -19.3404 1.6608
513 171 2 -3.71967 6.84119 1.79102 -7.71846 -9.71297 -1.27698
419 140 2 -3.17044 2.31637 -1.85748 0.466144 -19.581 4.1027
16 6 1 -4.23581 5.53062 0.0786102 -14.4968 13.9518 -12.6241
18 6 2 -5.16875 5.83847 -0.247756 2.92767 -2.17825 6.47022
643 215 1 -6.23325 1.65387 -3.11551 -0.903117 16.6859 7.83548
590 197 2 -2.3601 4.71055 1.0861 -4.72 16.4462 9.0721
50 17 2 -7.1105 3.52797 -0.0762226 1.86583 13.0182 -9.13108
49 17 1 -6.84844 2.74831 0.515794 -12.6276 -7.68771 4.39933
346 116 1 -6.98269 5.22652 -0.954032 -12.4008 -6.62973 -5.67777
511 171 1 -2.87901 6.81563 2.3605 17.0359 2.94044 7.67353
410 137 2 -0.0350319 6.50086 3.19681 -2.37435 -9.1729 2.59448
212 71 2 -5.21543 4.42528 2.02429 2.34438 -9.44614 9.1818
591 197 2 -2.28231 3.62165 -0.0488668 -1.05984 -6.73957 -6.3014
211 71 1 -5.34596 4.11143 3.00258 -7.01088 31.3633 -5.42602
213 71 2 -4.97489 3.17089 3.11438 3.0525 -2.72086 -8.59531
512 171 2 -2.8461 6.10302 3.08964 -8.85082 -2.86448 -4.1504
411 137 2 -0.756532 6.50775 1.68863 -22.3637 4.52967 -2.40941
37 13 1 5.06057 0.459272 -2.08089 -3.13687 7.01897 4.25399
500 167 2 3.60116 6.9616 0.511458 -7.69205 -2.54561 -4.1158
36 12 2 5.17225 2.20995 -2.22619 3.54365 9.96121 -2.70045
564 188 2 2.22023 3.73101 -1.88515 7.51442 1.42051 -8.30721
562 188 1 2.44872 3.88162 -2.88914 3.62985 5.66305 27.538
557 186 2 4.76604 0.913274 0.0178385 2.34745 -0.114908 16.9004
485 162 2 6.67897 0.0457198 2.28644 -2.48074 1.8173 -14.8775
558 186 2 5.03786 0.902207 1.77149 -17.9134 9.68152 -1.30673
556 186 1 5.40907 0.797421 0.820096 16.9809 -1.41873 -11.6998
497 166 2 6.85603 6.07855 2.4271 6.68694 19.0867 -6.61016
311 104 2 2.71823 0.00977029 0.140979 -8.37653 19.6719 -1.94022
312 104 2 1.87176 0.268959 1.41308 -12.9922 -0.474986 20.9901
501 167 2 4.67179 5.70159 0.11922 -5.15686 4.35216 2.79106
566 189 2 0.100533 5.37501 -0.0532541 10.8399 -4.87946 10.0107
51 17 2 6.85799 2.28092 0.867289 1.63248 -2.60282 -6.22032
347 116 2 7.09768 5.97533 -0.432678 6.47832 -1.54132 -5.46232
35 12 2 4.27282 3.51838 -2.67095 18.8541 -2.48826 8.20927
34 12 1 5.20205 3.25321 -2.25988 -22.0267 -9.58297 -1.63392
499 167 1 4.44322 6.70322 0.000568276 16.0814 2.58777 -2.09789
348 116 2 7.12966 5.08075 -1.87858 4.99121 3.17156 9.90928
153 51 2 2.06296 3.9922 0.652473 -1.13032 11.7454 19.4603
151 51 1 2.19153 3.37525 -0.126161 -0.537972 -14.4751 -13.6074
152 51 2 2.04134 2.39205 0.193741 5.33202 3.62878 -5.12047
305 102 2 5.30596 3.59611 -0.174836 1.02589 5.56691 1.35379
304 102 1 4.99232 4.02504 0.707683 -8.17291 -7.77112 -12.8588
306 102 2 3.99822 3.74462 0.740356 7.91315 4.48049 5.72044
310 104 1 2.25069 0.788841 0.644791 18.1901 -22.0613 -19.2665
24 8 2 1.61695 5.50418 2.09152 -14.0975 -8.58684 -2.90795
22 8 1 2.50456 4.99736 2.21621 -8.2438 17.8035 2.76631
332 111 2 6.04153 3.97672 2.44436 -3.14689 -2.3877 5.28433
409 137 1 0.062363 6.24073 2.20202 25.1761 2.90954 0.301612
23 8 2 3.01398 5.73712 2.69321 14.0672 -11.3048 2.24387
276 92 2 -2.64815 -1.39697 4.91986 -4.43804 -5.10803 -5.91262
536 179 2 -4.32898 -6.41545 5.4601 8.74352 12.7358 6.37676
274 92 1 -1.68511 -1.27256 4.58181 14.0175 6.54239 5.16824
150 50 2 -4.2219 -3.23543 4.07036 8.4609 -4.40313 -0.713845
148 50 1 -3.82071 -3.81126 3.32355 -16.7532 11.1746 -8.9902
275 92 2 -1.57212 -1.31075 3.56667 -8.1901 -3.50747 3.50061
442 148 1 -2.00388 -4.06384 6.53174 -17.3185 -2.32211 -0.885261
443 148 2 -1.18572 -3.47665 6.511 14.1609 7.91741 1.97233
444 148 2 -1.90802 -4.75247 5.78261 -0.934406 -12.6593 -3.84999
402 134 2 -5.70074 -3.21782 8.65795 -12.6537 2.43778 -0.342357
288 96 2 -4.48161 -2.41904 6.23128 12.477 1.3072 -1.30412
286 96 1 -4.28771 -1.71574 5.50895 -20.0754 -4.82347 4.84365
326 109 2 -5.04661 -4.66534 6.76815 11.5055 -0.431082 20.9509
325 109 1 -4.47597 -4.15473 7.49771 -22.8466 4.92311 -14.1406
327 109 2 -3.52616 -4.35166 7.14364 12.6496 3.60738 1.2462
107 36 2 -2.10097 -7.21793 7.61597 3.27213 13.5838 8.06454
359 120 2 -2.24937 -6.38907 3.86038 -3.08287 9.63928 6.82854
358 120 1 -1.94786 -6.28287 4.84063 -12.0145 -1.31304 -23.7442
400 134 1 -6.45432 -2.64459 9.08697 -16.9607 -52.4606 -16.2397
287 96 2 -5.22978 -1.47033 5.18944 3.70031 1.53196 -7.57011
360 120 2 -1.32099 -7.07669 4.93148 14.2887 -9.34928 15.5935
354 118 2 -1.90722 -0.0145299 8.94741 -11.3302 4.95097 -9.52777
108 36 2 -3.74489 -6.77378 7.95316 15.0693 13.0883 2.53057
401 134 2 -5.94434 -1.97591 9.67973 0.0726206 10.2437 -3.96687
125 42 2 -5.25681 -0.367802 8.90408 -3.35556 0.564186 18.0787
3 1 2 -0.538189 -3.96788 3.65167 -34.4134 22.5261 -10.9695
535 179 1 -5.14517 -6.04967 5.95589 -8.96126 -18.0143 -33.5565
537 179 2 -5.82437 -6.72033 5.56399 1.25806 4.89948 8.9978
353 118 2 -0.419932 -0.547379 9.32701 -3.62324 5.62614 2.54477
370 124 1 -7.23314 -0.189073 7.86209 3.26091 -10.1513 -10.0426
371 124 2 -6.67226 -0.134257 7.01269 -4.03263 5.883 0.850491
329 110 2 -0.754582 -0.238234 6.36113 -4.95335 17.7291 -8.16002
415 139 1 -0.580665 -6.23628 8.44196 -13.8101 -11.5756 30.3117
417 139 2 -0.696758 -6.5169 9.44601 5.66138 6.49489 -27.4306
126 42 2 -4.1209 -1.36342 9.29961 4.897 -6.95969 12.2454
404 135 2 -3.53428 -3.09229 8.20649 -0.327465 -7.89835 -2.66647
405 135 2 -2.10483 -2.31625 8.67749 0.202841 -10.8986 3.15325
403 135 1 -3.13889 -2.30551 8.73505 7.16153 20.1022 4.35451
510 170 2 -0.516049 -3.46733 9.6963 -1.69481 8.44043 -11.138
508 170 1 -0.550426 -2.69468 9.01037 7.42137 1.86562 12.8201
337 113 1 7.26539 -2.68595 4.74138 40.5074 -22.6811 30.404
338 113 2 6.84554 -2.17462 3.98079 -14.9245 6.37594 -11.2752
614 205 2 0.71987 -0.310753 4.63221 -4.46236 -3.19452 10.5456
6 2 2 5.00034 -6.85268 3.70195 5.27247 -11.8751 6.96444
339 113 2 6.77447 -3.51405 5.13697 -12.4828 24.9489 -13.7283
110 37 2 4.75567 -0.582724 6.27379 -11.8757 2.56822 -15.2405
1 1 1 0.339597 -4.30815 3.93133 27.167 -17.4405 15.1601
2 1 2 0.298833 -5.27354 3.62464 6.05488 -1.55387 2.43136
486 162 2 5.75463 -0.666423 3.44001 11.0787 -2.31157 2.13187
4 2 1 4.58721 -5.94112 3.55845 -10.0081 -3.9561 -15.9208
239 80 2 4.68461 -4.13642 6.59452 2.7856 7.13722 -6.35792
238 80 1 5.11847 -4.04994 5.65443 7.57637 -8.73586 11.5306
440 147 2 3.71889 -0.610359 4.45877 -16.1357 24.4865 2.88824
439 147 1 4.43725 -1.25834 4.69898 1.7699 -15.3511 -19.2486
441 147 2 4.26282 -2.00502 4.01862 11.8774 -8.51842 7.6096
30 10 2 1.19854 -3.99304 7.15178 -6.59333 11.8805 -15.7633
28 10 1 0.701009 -3.26785 6.57825 3.23881 -18.3917 0.187572
29 10 2 0.5717 -3.59989 5.59081 8.67004 4.49321 15.7566
416 139 2 0.24215 -5.65053 8.34301 10.3041 -0.529063 -1.94129
112 38 1 3.91137 -1.25516 9.33017 -4.55388 11.4018 -25.0902
357 119 2 5.24794 -4.44728 8.54832 -16.8862 10.5245 3.26836
356 119 2 4.15758 -3.14138 8.72205 4.376 -9.6449 -9.32945
355 119 1 4.3653 -4.01705 8.19456 18.892 2.38071 11.834
114 38 2 4.00632 -0.615042 8.50142 -0.856747 -16.5986 19.7412
185 62 2 2.98489 -4.87998 7.98545 -2.00219 6.84529 9.56723
184 62 1 2.03865 -5.19221 8.26858 -4.98189 -15.7107 -4.44589
186 62 2 2.18822 -5.92183 9.02741 -9.25941 19.3317 -11.7361
330 110 2 0.520452 -0.727077 7.01407 16.2814 7.34067 2.99172
240 80 2 4.98927 -4.8687 5.07498 -10.749 -6.55237 -13.1776
509 170 2 0.071708 -2.86686 8.21365 0.86762 -5.08528 -3.82099
428 143 2 2.60641 -6.34337 5.59492 -1.92571 4.76786 1.16247
587 196 2 6.45505 -6.41282 6.23651 5.15833 6.05183 3.73706
372 124 2 7.17647 -1.18948 8.05622 1.39412 3.2864 7.4152
573 191 2 -6.59437 0.344983 3.73733 0.471185 7.01767 11.4822
498 166 2 -6.74464 6.94222 3.3945 5.13907 2.65346 -2.88961
176 59 2 -3.7629 0.174199 6.33739 -0.406978 -6.93218 -10.4138
177 59 2 -3.71514 1.6374 7.16491 1.087 0.448042 -3.28589
175 59 1 -3.57942 0.629294 7.21849 -1.39323 5.10236 16.6452
571 191 1 -5.96099 1.09303 4.09487 12.4856 -5.83798 -24.3111
71 24 2 -5.85392 6.6423 8.55979 -8.46959 0.727427 15.7991
70 24 1 -5.69077 6.34561 7.60927 -10.1787 -11.0208 4.18201
106 36 1 -3.06153 7.03154 7.81824 -15.4862 -20.9847 -11.7553
572 191 2 -5.3417 1.29832 3.29064 -7.99883 -2.78684 9.32379
72 24 2 -4.69424 6.52636 7.4959 11.4729 -5.08535 -4.26736
352 118 1 -1.07932 0.226863 9.4724 9.89633 -10.7963 11.7035
333 111 2 -7.07851 4.18904 3.24957 14.905 -7.39814 3.8908
576 192 2 -6.02001 5.70352 5.73696 4.13657 -10.4251 1.32114
575 192 2 -5.52865 5.4649 4.10181 3.67074 -22.0289 1.0503
574 192 1 -5.81701 6.12142 4.82691 -8.44804 28.0622 -10.3944
626 209 2 -6.51008 2.86072 8.89 11.5266 6.75463 2.99925
625 209 1 -6.9038 3.32622 8.0773 -22.0638 -5.61831 -11.598
627 209 2 -6.68734 4.32066 8.03092 7.30952 2.11284 2.83396
597 199 2 -3.08672 5.54652 6.38697 9.43756 -4.23814 3.64963
595 199 1 -2.67658 4.66932 6.05287 -22.8861 -3.30797 -8.64283
56 19 2 -2.12614 5.15493 8.7108 10.0127 3.67728 -6.29146
596 199 2 -3.45469 4.07778 5.70263 11.3014 5.92675 9.54333
318 106 2 -5.88118 2.86544 6.63046 -2.98261 6.87184 0.942674
317 106 2 -5.34551 2.42842 5.10449 -7.10166 4.93778 11.4943
316 106 1 -5.2157 3.10174 5.88484 10.2841 -11.6918 -10.2155
579 193 2 -0.793361 3.88774 6.60497 10.5806 -2.56925 -11.5649
588 196 2 -7.13372 6.97257 7.02503 4.3871 -0.669565 2.36466
408 136 2 -0.142306 5.42591 5.47754 3.87523 -5.62253 2.45384
55 19 1 -1.21613 4.77621 8.9919 -7.3065 -4.35147 11.2866
613 205 1 1.25342 0.0878685 3.87056 3.52389 -13.64 -8.89267
615 205 2 1.00285 1.0623 3.83382 3.78804 10.9252 -2.14294
435 145 2 5.58697 2.05662 3.72688 19.2052 7.97456 7.42677
433 145 1 4.73018 1.70914 3.34549 -15.3117 -3.89718 -2.58215
434 145 2 3.9849 2.28369 3.77078 -6.07874 -8.60811 -6.9812