ITEM: TIMESTEP
8500
ITEM: NUMBER OF ATOMS
648
ITEM: BOX BOUNDS pp pp pp
-7.2841208187449462e+00 7.2841208187449462e+00
-7.2841208187449462e+00 7.2841208187449462e+00
-1.6186935152766875e+01 1.6186935152766875e+01
ITEM: ATOMS id mol type x y z fx fy fz
128 43 2 -2.11458 -1.08318 -14.7404 5.75169 15.0827 10.6688
127 43 1 -2.22096 -0.726137 -13.7738 -6.24821 -31.3576 -3.52746
633 211 2 -3.29214 -2.1664 -14.7679 -6.70796 -2.60836 10.893
631 211 1 -3.2242 -2.6985 -15.6196 7.18925 4.79205 -10.4044
632 211 2 -4.15595 -2.89189 -16.0258 2.05831 -5.2394 1.25905
489 163 2 -4.92536 -4.94397 -14.8202 -7.95741 -4.23883 -2.09509
487 163 1 -5.22864 -4.98977 -13.8467 23.9597 15.7014 1.82973
627 209 2 -1.84135 -6.42649 -15.4057 3.46249 7.05618 -5.28495
237 79 2 -5.41962 -7.17731 -12.1311 -2.98892 15.9151 3.51941
488 163 2 -4.54875 -4.33606 -13.4097 -8.08345 -9.00717 4.74796
363 121 2 -2.46569 -2.70548 -12.8894 0.441471 1.04016 -3.56516
361 121 1 -3.19796 -3.38445 -12.6707 -4.10592 1.3578 14.3301
471 157 2 -2.23608 -5.07258 -13.2965 -8.14785 11.4497 9.14461
27 9 2 -5.99536 -3.42614 -10.4588 -6.30558 -11.0787 -5.35078
434 145 2 -6.83917 -4.86189 -13.9317 20.5297 1.23163 6.04097
362 121 2 -3.46693 -3.22294 -11.6904 2.01339 -3.31025 -6.06692
26 9 2 -6.52159 -5.03273 -10.8581 -2.68169 1.73794 -2.97623
25 9 1 -5.95378 -4.43325 -10.2516 7.09635 7.47039 1.03304
623 208 2 -2.50478 -0.106119 -9.76446 16.4097 12.7852 -10.4506
635 212 2 -0.152699 -4.14661 -10.2829 -6.73863 -0.456565 11.697
23 8 2 -1.49025 -0.00924103 -11.8722 0.209301 -2.52 2.23075
469 157 1 -1.58645 -5.57394 -13.8804 -5.52017 -10.6606 -14.0677
588 196 2 -6.88245 -0.426164 -14.2179 -2.55774 -1.71701 7.61353
22 8 1 -1.278 -0.13143 -10.8798 -7.08157 1.13218 -6.00176
24 8 2 -0.366179 -0.586001 -10.7919 12.0117 0.516051 2.90927
470 157 2 -0.761664 -5.87746 -13.3711 3.31676 -5.10102 0.767317
555 185 2 -4.51007 -0.190121 -14.044 -6.5604 2.94212 -0.350584
542 181 2 0.783518 -1.59397 -14.386 3.6935 2.30066 6.0564
14 5 2 0.348404 -5.02759 -15.3934 -3.02563 1.08081 -5.91446
89 30 2 7.26778 -0.983357 -9.73083 11.9979 5.84472 11.6506
88 30 1 6.6225 -1.56509 -10.2297 -10.8817 -7.05893 -14.6068
139 47 1 4.69618 -3.31727 -14.2304 -10.5239 9.00682 -6.18655
543 181 2 1.52787 -2.68588 -13.2542 12.1606 15.981 11.1589
541 181 1 0.884237 -2.53635 -14.0229 -11.2866 -14.6943 -8.23267
15 5 2 0.965108 -4.33179 -14.1296 -1.45581 1.34122 -9.63916
13 5 1 1.07464 -5.19559 -14.6858 5.66474 6.76514 10.8952
141 47 2 5.62506 -3.82054 -14.2467 -8.22647 2.72202 6.70197
637 213 1 3.93597 -2.27 -9.75089 13.667 13.535 -6.59579
140 47 2 4.30547 -3.33836 -13.2874 2.42204 7.08741 1.22917
190 64 1 6.39493 -6.25674 -10.9758 -21.8815 6.51274 -7.11762
192 64 2 5.91967 -5.55522 -11.55 11.3945 -4.73751 -2.25094
160 54 1 3.31386 -5.63236 -13.5222 1.20688 3.60865 7.61818
282 94 2 3.61635 -2.50424 -11.3203 -17.1617 7.97141 -10.6462
280 94 1 3.07778 -2.31731 -12.2076 15.2282 -5.07044 -0.25044
162 54 2 3.78412 -4.80029 -13.8811 11.0315 1.09172 -3.51841
191 64 2 5.58867 -6.77449 -10.5755 13.2787 4.372 3.8509
170 57 2 2.4127 -5.47082 -12.0478 4.91563 -4.93608 6.70614
97 33 1 3.9768 -6.98988 -9.82968 -8.73291 7.2313 15.9327
169 57 1 1.83081 -5.62295 -11.2082 -8.617 6.28231 -10.4877
171 57 2 2.32923 -6.19662 -10.5295 5.21822 -4.92419 -0.271569
161 54 2 2.36126 -5.55749 -13.9219 -7.71984 -5.01555 -7.2126
423 141 2 3.72972 -2.55003 -15.825 5.36194 -6.11364 6.47702
587 196 2 6.36947 -1.30577 -14.731 1.41541 -1.7957 7.8234
281 94 2 3.56264 -1.5916 -12.7511 -3.39693 -3.88495 6.20915
342 114 2 0.909881 -6.70285 -12.3787 4.24678 16.255 7.28096
433 145 1 6.7138 -4.77857 -13.9918 -11.0737 -11.9903 0.0574864
435 145 2 6.43093 -5.54074 -14.6168 0.705334 -0.166486 7.16178
90 30 2 6.09642 -0.898633 -10.8425 3.65714 -6.14974 5.4087
584 195 2 1.87998 -0.322327 -9.76075 -5.4544 7.54913 7.94876
586 196 1 6.69423 -0.667454 -14.0014 -0.398772 1.67602 -12.8534
583 195 1 1.38282 -0.839659 -10.4969 -4.0848 -6.27548 -6.83665
585 195 2 2.02318 -1.56448 -10.8281 -1.26033 -0.598926 -5.92948
638 213 2 4.88936 -2.01024 -10.0602 1.35054 -11.3948 1.46923
55 19 1 4.25271 -5.6952 -16.1845 7.16486 -2.7315 -15.9749
57 19 2 3.70612 -5.93986 -15.359 0.950992 -1.76104 3.01458
129 43 2 -2.31774 0.295252 -13.6842 5.24744 13.8588 -13.3338
626 209 2 -1.986 6.64756 -15.9341 2.60151 -1.23719 -7.76572
235 79 1 -5.41357 6.43518 -11.822 -2.79457 -1.41816 -12.702
231 77 2 -6.37894 6.71742 -9.98216 -0.882522 -12.5859 -1.64266
539 180 2 -1.65122 2.55485 -13.2633 1.80216 4.47217 -1.45384
538 180 1 -2.34034 1.89468 -13.6886 -30.8353 -31.2 -9.10636
188 63 2 -1.38165 4.51407 -12.5017 2.00255 -14.2674 -2.58213
189 63 2 -0.126223 3.57134 -12.0541 -0.627197 -3.46041 -3.98422
187 63 1 -0.923399 3.60703 -12.6977 23.6878 47.968 26.5285
198 66 2 -0.968448 4.5668 -14.3165 -9.34106 0.412253 -2.96032
540 180 2 -3.2134 2.06072 -13.142 5.19549 5.47448 -4.11846
481 161 1 -4.36772 2.71968 -12.1719 -14.3906 -4.87391 1.70356
482 161 2 -5.3648 2.91416 -12.2512 0.659154 1.82947 -5.17427
553 185 1 -5.38882 0.0692652 -14.5031 12.7821 2.60173 -11.8183
554 185 2 -5.19606 0.146508 -15.5352 -4.01957 -0.924533 12.0743
531 177 2 -4.52827 4.18272 -14.3282 -3.07466 -2.21322 2.98668
529 177 1 -4.29345 5.12706 -14.028 -0.44589 6.08134 -6.60399
530 177 2 -3.29562 5.25614 -14.2322 1.5433 1.65374 -1.36126
600 200 2 -7.11952 6.37061 -15.138 -1.09853 13.4756 -1.0147
483 161 2 -4.18624 2.86675 -11.1874 9.62813 3.02108 8.55984
236 79 2 -5.08501 5.95646 -12.6648 7.74646 -13.0496 1.70905
612 204 2 -6.38571 1.9106 -14.1963 -4.80847 18.4103 -14.3448
224 75 2 -7.08996 4.67284 -12.0495 11.2741 -1.67761 7.13131
611 204 2 -7.05425 3.23382 -13.4978 -0.14885 -0.312808 -16.267
610 204 1 -6.7486 2.86215 -14.4296 10.3516 -28.1098 22.9495
196 66 1 -1.47087 5.189 -14.9661 -3.64657 -6.58939 8.42839
197 66 2 -0.667528 5.66464 -15.4154 3.81621 5.87741 -2.14902
75 25 2 -0.688851 3.04239 -15.4588 -9.9995 -1.80937 1.33758
60 20 2 -6.97778 3.14338 -16.073 -3.69474 5.1649 -3.60913
599 200 2 -5.49903 6.31596 -14.9926 4.55673 0.61467 -0.126609
598 200 1 -6.24997 6.82025 -15.4699 4.54294 -6.17102 -6.31405
340 114 1 0.527083 7.09485 -12.9089 3.26528 -16.0099 6.97391
144 48 2 6.00838 6.71687 -13.1051 -1.33069 3.94093 -3.93013
83 28 2 1.3056 7.16202 -16.0373 -1.65074 4.71269 -8.88148
142 48 1 5.97575 6.77495 -14.1229 9.38681 0.413171 6.224
143 48 2 5.01509 6.59812 -14.4494 -7.36822 -5.7096 2.3283
328 110 1 1.87768 2.54885 -10.564 0.0187613 6.50105 -14.1637
98 33 2 4.28903 6.58671 -9.87714 -2.84785 1.93964 3.63059
8 3 2 4.67617 0.912689 -11.8657 2.92514 -3.28889 3.71435
84 28 2 0.755941 6.85167 -14.5519 -12.0116 5.43598 21.4222
82 28 1 0.728423 6.52365 -15.513 12.9836 -8.29965 -13.7795
179 60 2 5.6833 0.674321 -14.3042 4.13564 -9.49187 0.949769
178 60 1 4.9585 1.25994 -14.7346 0.781057 3.76439 5.4199
180 60 2 4.63527 1.89286 -14.003 0.510409 3.56292 -0.84065
335 112 2 3.87055 3.40569 -11.4589 -0.0045313 -0.303544 13.3805
7 3 1 5.07348 0.29284 -11.1568 -12.9034 12.2884 -8.43105
330 110 2 1.81406 1.87125 -11.3254 -0.881056 2.48052 3.49572
9 3 2 5.54128 0.906994 -10.4743 6.40795 0.156189 -0.259277
223 75 1 7.16502 3.69737 -12.0311 -11.0854 19.6306 -3.1348
225 75 2 6.13206 3.83487 -12.0108 3.8627 -16.2589 0.635066
271 91 1 4.93268 5.01591 -9.74922 -20.2427 -12.6431 14.9854
479 160 2 7.08901 2.4164 -10.8784 -2.77397 5.93025 2.01509
334 112 1 4.45818 3.26033 -12.2703 -13.411 5.20175 -17.7333
226 76 1 3.55682 5.86914 -14.6816 -14.0792 -6.42392 -2.84125
336 112 2 3.87514 3.63927 -13.0427 10.7688 -9.08098 2.08141
228 76 2 2.69213 6.35153 -14.3895 11.4074 -10.7526 -4.21804
118 40 1 1.13151 5.36138 -10.9694 -0.779809 -10.048 2.48144
227 76 2 3.35841 4.85859 -14.8599 -0.963158 13.9954 4.62008
119 40 2 1.58333 4.51913 -10.5944 -1.11298 -4.03152 -6.7113
120 40 2 1.25877 6.06227 -10.2199 1.6153 2.73003 4.07939
298 100 1 2.98162 3.15216 -14.6562 -1.81924 0.222251 -9.51475
299 100 2 3.5856 2.50585 -15.1968 -7.22619 3.54612 2.35512
341 114 2 0.717703 6.29989 -12.2657 -3.80544 0.0652764 -4.72613
478 160 1 6.99604 1.89661 -9.99453 8.23306 -3.4594 1.58491
73 25 1 0.283886 3.0905 -15.7237 18.6922 -6.8534 -6.82519
300 100 2 2.02217 3.09529 -15.0457 1.39933 1.22009 2.05947
636 212 2 -0.435988 -3.77057 -8.66302 8.39735 1.60084 12.8794
634 212 1 -0.852617 -3.90137 -9.56786 -3.75727 3.89221 -23.9173
449 150 2 -5.46999 -2.568 -7.54461 -2.65387 -0.184143 3.88265
172 58 1 -4.36185 -5.12712 -8.21805 3.50359 -7.52675 -3.44339
173 58 2 -3.63742 -5.81689 -8.46779 -3.92569 7.45459 4.3113
621 207 2 -4.09277 -3.49585 -9.04549 12.1732 -11.0036 1.55309
620 207 2 -2.48728 -3.03382 -9.47654 1.26462 -13.4318 2.2797
619 207 1 -3.48907 -2.79099 -9.48289 -4.19564 7.01729 -12.1215
624 208 2 -3.56115 -1.21978 -9.47416 -3.32652 -0.475538 4.27885
312 104 2 -0.180532 -1.48457 -7.88776 -4.7946 -0.0428949 -12.6493
310 104 1 -0.0518375 -2.15599 -7.1445 1.8322 20.2209 -0.799709
174 58 2 -5.03833 -5.074 -9.00658 -0.528274 0.658216 4.34462
567 189 2 -3.54392 -3.02799 -4.20493 -16.7201 -5.04056 -8.46099
413 138 2 -3.07825 -5.76756 -5.31436 -3.66367 11.9356 0.957163
105 35 2 -4.39844 -4.81803 -6.36596 18.5941 5.64316 7.11219
148 50 1 -1.60282 -7.01184 -8.38272 2.06252 -6.96008 10.5883
104 35 2 -5.29482 -4.35743 -5.22001 5.44805 7.0645 14.7173
103 35 1 -4.28618 -4.42061 -5.41126 -28.5007 -2.42074 -23.5521
414 138 2 -1.53161 -5.30176 -5.8902 -4.65382 2.86655 11.0797
412 138 1 -2.18999 -6.09011 -5.70706 6.55437 -28.0149 -10.7692
149 50 2 -1.73059 -6.82714 -7.36875 -2.47244 -2.41046 -11.2851
19 7 1 -0.825978 -2.47714 -3.68118 -2.52532 4.64659 2.39432
21 7 2 -0.452005 -3.30879 -4.13182 2.21593 -7.80916 -8.21941
448 150 1 -5.1746 -1.59434 -7.51414 9.11488 -7.44075 2.13175
450 150 2 -4.20619 -1.59538 -7.87528 -11.0333 8.99882 3.7503
69 23 2 -5.19387 -0.254705 -5.63412 3.21684 -10.9521 0.637355
622 208 1 -3.36062 -0.233923 -9.22805 -11.858 2.783 7.10307
566 189 2 -2.60544 -1.88793 -3.74006 8.34644 8.28268 3.98197
565 189 1 -3.59834 -2.06737 -3.86204 22.8416 -5.20144 -3.85102
43 15 1 -7.18323 -4.0712 -4.81046 28.5508 3.72441 -3.86114
45 15 2 -6.90096 -4.70128 -4.04522 -8.72358 2.29072 3.04697
477 159 2 -6.72322 -1.13237 -7.01227 -12.2169 -2.44471 -18.6574
122 41 2 -0.551594 -3.3818 -6.1993 9.78679 -12.0268 -1.48044
121 41 1 -0.338013 -4.33222 -5.81048 -12.1348 16.6249 6.28259
38 13 2 -5.98841 -6.86993 -6.02481 -6.29511 -6.19097 1.76406
37 13 1 -5.22404 -7.1192 -5.39201 11.1879 -4.69009 -8.27308
443 148 2 -0.841095 -7.11897 -5.38773 -5.07611 2.17533 -4.72261
339 113 2 -6.29677 -2.35423 -3.32815 -0.524735 -2.68109 -7.59058
420 140 2 -4.7299 -6.65483 -3.73799 -9.55597 0.48912 -0.739314
20 7 2 -0.309032 -1.66234 -4.01996 1.63541 0.620066 -0.911047
639 213 2 3.87923 -1.57051 -8.9968 -2.25552 -5.8844 7.93535
99 33 2 3.45845 -6.82016 -8.9409 13.2694 -13.4772 -18.5512
311 104 2 0.420491 -1.57856 -6.42644 2.86618 -7.51794 6.45162
593 198 2 6.59049 -6.19913 -7.19977 4.87337 -5.11881 1.00383
44 15 2 6.38681 -4.14397 -4.96214 -15.9507 -4.72426 0.571828
515 172 2 6.69634 -4.50463 -9.44668 1.92264 1.30548 9.35378
516 172 2 6.43439 -3.57443 -8.0413 -0.424862 2.63925 -3.3357
514 172 1 6.40628 -4.49858 -8.46419 -4.89409 -7.03806 6.00175
206 69 2 2.87561 -3.54677 -8.91619 5.86638 -2.12739 8.06649
123 41 2 0.495703 -4.65729 -6.27761 14.8518 -7.90961 -1.12505
475 159 1 6.84601 -1.27346 -6.75438 44.7638 0.835267 42.7197
368 123 2 4.78513 -4.52876 -3.48482 -7.19959 -0.301813 -19.3788
205 69 1 2.94946 -4.47805 -8.47987 -3.89458 -4.27649 -19.4195
207 69 2 3.44684 -5.01253 -9.20419 0.493285 3.54857 10.6877
476 159 2 7.09359 -1.36182 -5.73965 -25.3289 -0.850846 -20.7589
87 29 2 2.20294 -1.41995 -5.1846 -15.0431 -1.77177 -4.08315
85 29 1 1.29951 -0.88619 -5.1528 24.027 1.49807 7.88043
259 87 1 5.77703 -0.388422 -4.10702 1.37172 7.0856 14.5007
86 29 2 1.53233 -0.201664 -4.42185 -7.33269 -4.03939 3.41038
12 4 2 2.20363 -5.34258 -7.31595 -3.23597 2.27792 -1.03541
10 4 1 2.02398 -5.98717 -6.52129 1.44855 6.15754 -6.78148
444 148 2 0.715131 -7.04053 -6.02051 -2.69867 -2.60039 6.01961
592 198 1 6.88248 -7.17715 -7.04032 -10.2415 14.9286 -12.3633
284 95 2 3.90261 -1.50582 -6.92202 4.67362 -2.78001 3.28778
283 95 1 4.45343 -0.892686 -7.5377 -45.1988 8.73296 -1.77032
285 95 2 5.41995 -0.959816 -7.19976 24.4656 -6.34874 0.633927
484 162 1 3.52498 -7.16896 -3.93315 20.5444 -9.526 -12.8957
11 4 2 2.98899 -6.19085 -6.26873 -0.664895 -10.0829 9.0217
369 123 2 4.19504 -5.60413 -4.66291 0.238065 -6.0607 13.4587
367 123 1 4.66016 -4.70405 -4.5111 1.8774 4.94429 3.24855
563 188 2 4.43388 -1.68784 -4.7673 -22.3551 -27.5336 -7.97835
562 188 1 3.65833 -2.29719 -5.16951 17.1038 27.8267 4.68589
564 188 2 3.85768 -3.31623 -5.05387 8.12732 12.0854 4.62961
81 27 2 -3.38994 4.24847 -8.91313 -20.3419 1.90341 -10.1376
229 77 1 -6.65843 5.96568 -9.33645 -6.41884 7.05243 7.30064
230 77 2 -5.88969 5.28542 -9.26604 3.85408 0.517604 -2.0259
80 27 2 -4.70872 3.22552 -8.75777 -1.15711 7.63235 -5.87013
79 27 1 -4.41882 4.16636 -9.10111 22.2982 -7.34909 9.99545
67 23 1 -5.81771 0.268725 -5.03149 -2.57419 11.5443 -3.36764
39 13 2 -4.6555 6.71367 -5.82606 -8.83657 5.5647 7.1418
68 23 2 -5.55657 1.26689 -5.20287 -4.4074 -9.91536 4.23021
31 11 1 -4.95246 2.65746 -5.65188 -3.84099 -17.278 -11.6125
32 11 2 -4.04445 2.95176 -6.00107 0.810963 6.45597 7.77068
33 11 2 -5.17394 3.03619 -4.71858 3.99178 18.3451 -1.43704
150 50 2 -1.85824 6.60078 -8.64557 -2.32637 5.1963 4.64973
182 61 2 -0.309606 4.92682 -5.84565 3.85557 23.5917 8.90185
464 155 2 -4.48142 0.91701 -8.55851 -7.54445 7.15496 4.06632
463 155 1 -5.14681 1.70859 -8.38347 0.730013 -3.2722 -7.68485
465 155 2 -5.3874 1.85623 -7.39516 5.5084 -4.85982 1.0831
490 164 1 -1.58391 4.30543 -8.89811 -5.87594 5.18317 2.13552
492 164 2 -1.24606 3.80085 -8.09035 -1.78445 -4.8198 10.8437
491 164 2 -0.773821 4.68896 -9.35977 5.93791 3.29274 -9.50489
183 61 2 -1.58411 4.17655 -4.97267 8.15062 3.66491 2.51037
181 61 1 -0.882378 4.10925 -5.71532 -9.2889 -28.8719 -13.8404
480 160 2 -6.64086 1.91739 -9.55109 -6.39099 -3.18998 4.96971
307 103 1 -5.256 4.4752 -3.64502 -0.543349 -0.417357 14.5167
246 82 2 1.93631 1.27202 -7.7195 -6.47986 -4.84917 2.37575
245 82 2 3.12436 0.203802 -8.07284 -10.943 4.7229 -8.8616
244 82 1 2.25763 0.628092 -8.46969 24.1638 -2.61633 6.12045
329 110 2 1.77566 2.02946 -9.69625 2.61148 -6.93493 8.74195
273 91 2 5.82115 4.84979 -9.29035 14.7092 5.65827 -4.58274
261 87 2 6.40296 0.223317 -4.59767 10.0168 3.37294 -21.28
594 198 2 7.04059 6.99991 -7.98141 7.33987 -6.22844 5.58014
272 91 2 4.24324 4.52104 -9.15176 2.4613 11.7857 -8.60487
548 183 2 5.27203 6.75823 -6.61308 -1.07521 1.38669 -4.05315
547 183 1 4.27286 6.57345 -6.42121 11.8207 -4.4425 4.44132
268 90 1 4.32759 1.77234 -6.55509 7.7421 -10.7209 -2.25542
270 90 2 4.99832 1.94011 -7.31747 -5.93584 -3.2891 10.6404
502 168 1 3.07693 4.33218 -7.57728 -3.14207 -6.40868 -16.6762
644 215 2 0.465781 2.5754 -6.5357 2.01291 0.886856 6.96967
645 215 2 0.96033 1.22254 -5.71547 -1.70617 -3.56785 2.33968
643 215 1 1.22732 1.89762 -6.42599 -6.68055 10.3215 -3.15193
485 162 2 2.52096 7.2515 -4.05736 -9.24949 -0.706622 13.3401
269 90 2 4.41246 0.783989 -6.24272 -0.389862 19.6226 -7.55888
503 168 2 3.14487 3.34239 -7.35409 1.54737 -4.31262 8.87971
504 168 2 3.61853 4.91915 -6.94686 3.74872 9.49055 5.10818
209 70 2 0.456495 7.05527 -8.55773 -7.30179 7.21451 5.1566
549 183 2 4.20642 6.57599 -5.39324 -6.61416 6.62548 -2.36873
210 70 2 1.96208 6.68144 -7.87616 -10.3841 -1.00261 -8.43531
208 70 1 1.41621 6.77921 -8.74921 9.74796 -1.93715 5.86062
442 148 1 0.00606371 6.89926 -5.59463 6.27197 -0.253248 -6.44467
305 102 2 0.346994 6.9396 -3.86716 -3.60004 -12.4399 7.00226
445 149 1 3.015 2.64443 -3.96669 -3.39091 20.9874 -14.5785
446 149 2 3.13185 2.30418 -4.91469 8.20639 -16.8068 -4.55186
447 149 2 2.65956 3.57486 -4.19424 -1.02473 -4.34522 17.8658
277 93 1 -4.39377 -3.09876 -0.304189 -27.3022 11.3601 -11.8002
279 93 2 -5.11185 -2.80479 -0.993633 5.07893 -10.5899 5.1992
278 93 2 -3.58523 -2.59873 -0.679679 15.9498 1.32982 5.51345
557 186 2 -1.92867 -2.87284 -1.00396 -3.23419 13.5152 -9.43201
578 193 2 -3.47731 -5.58469 1.5711 3.84229 -9.02084 -1.52794
350 117 2 -1.52205 -3.75401 -2.45245 4.7739 -14.5098 -2.39683
558 186 2 -1.44041 -1.48096 -0.308368 -11.7609 -1.17181 -8.21969
556 186 1 -2.14149 -1.84016 -0.987596 20.0824 -2.23139 21.1943
579 193 2 -3.86577 -4.03804 1.17264 -5.80236 -6.47007 -8.4404
524 175 2 -6.2211 -5.73372 -2.34541 2.95512 -7.60718 7.9376
523 175 1 -7.12037 -5.22996 -2.32348 -11.489 11.0125 -9.00575
315 105 2 -5.84121 -0.507964 -0.97238 -10.9982 3.87115 8.99928
349 117 1 -1.59183 -4.33792 -1.6059 -4.86463 13.9754 8.91786
577 193 1 -4.08795 -4.81814 1.80857 -3.60356 12.5006 5.73273
347 116 2 -5.75959 -5.19133 2.68437 -7.9005 -4.06052 5.2605
351 117 2 -1.50758 -5.35842 -1.67903 2.47645 2.14338 -4.76664
338 113 2 -4.7927 -1.82478 -2.8056 8.19691 -6.50378 -23.3949
337 113 1 -5.76876 -1.99641 -2.54045 -21.662 5.85729 37.7394
418 140 1 -4.71878 -6.61361 -2.70787 9.5818 -10.4861 -2.09398
346 116 1 -6.68665 -5.46653 3.06288 7.16136 7.34669 -16.3207
537 179 2 -2.16724 -2.24015 2.73693 15.3365 -8.10337 2.96473
535 179 1 -1.67636 -3.03877 2.26605 -15.16 19.9553 -11.0294
550 184 1 -7.12332 -3.52725 0.684035 -11.5459 -3.71115 -10.2531
551 184 2 -6.18481 -3.69271 0.339579 13.0449 2.09577 -1.48408
609 203 2 -0.537368 -4.23455 1.04861 -1.73117 0.975569 -4.03622
505 169 1 -0.152423 -1.16462 1.16049 -13.8808 7.9938 -31.1087
507 169 2 -0.662742 -1.97232 1.57059 10.0363 0.762162 12.8131
313 105 1 -6.48421 -0.589537 -0.16981 19.7689 -19.8408 -16.0405
314 105 2 -6.86025 -1.53587 -0.255455 -8.91403 2.31206 3.80986
95 32 2 -3.62967 -0.0173826 -1.40076 -2.3571 -2.82288 -4.40319
34 12 1 -0.621094 -6.74808 -0.44291 11.987 -11.854 3.53963
321 107 2 -1.43233 -0.35442 -2.36716 2.16395 6.20809 -3.27818
35 12 2 -0.147742 -6.03617 0.152814 -11.1118 2.32733 -1.47473
166 56 1 -5.48582 -2.2098 2.5197 12.1524 -3.44681 -9.54694
168 56 2 -4.81477 -2.93514 2.22653 -10.2157 4.4404 7.06165
167 56 2 -5.85543 -1.75265 1.68168 -1.60871 -2.63241 2.11344
536 179 2 -2.16862 -3.86009 2.5895 -0.309337 -14.0452 10.9724
603 201 2 4.11892 -7.13733 -0.849587 10.1671 -4.01492 -19.0867
615 205 2 6.75568 -6.43691 1.5205 11.0748 0.690607 -5.19071
525 175 2 6.77993 -5.46539 -1.57896 15.4343 -14.15 4.70916
216 72 2 1.78287 -6.73766 -1.79703 -4.94534 0.0852441 -12.3958
214 72 1 2.24828 -6.12532 -1.12828 6.2006 12.3504 15.5378
215 72 2 1.63351 -5.35623 -0.828924 0.642062 -4.27501 -6.73076
238 80 1 2.28005 -2.85711 -1.75958 2.94112 -10.2824 30.6874
425 142 2 5.63838 -3.05119 -1.34737 0.674823 -1.72465 -5.57788
424 142 1 5.34173 -3.5536 -2.19061 -13.8704 3.73674 9.50367
426 142 2 6.08932 -4.16784 -2.53279 12.85 4.07755 6.01287
552 184 2 7.07787 -4.46731 0.838424 -4.60673 -2.3135 1.75944
194 65 2 6.51416 -2.65286 1.92084 -4.4072 8.08904 10.2358
608 203 2 0.62984 -4.65082 2.05886 -4.44884 -6.86892 -13.3741
607 203 1 0.311323 -4.80282 1.07488 9.94944 10.0084 25.3832
193 65 1 5.81207 -2.43332 2.65871 2.23564 -14.9569 -14.0885
373 125 1 2.7009 -2.62522 1.36773 -6.75014 22.9424 -38.169
374 125 2 2.19973 -2.42167 0.479988 10.8552 -6.92614 15.3158
375 125 2 2.43717 -3.55259 1.6289 -1.95443 -15.9023 9.75873
506 169 2 0.790358 -0.986278 1.50021 0.217337 -13.8145 14.2898
195 65 2 5.19568 -3.252 2.63448 -2.39156 11.1422 5.03474
613 205 1 6.42492 -6.43159 0.552137 -1.90902 11.6004 21.3302
240 80 2 1.77054 -2.53509 -2.56685 4.04187 2.02729 -11.88
239 80 2 3.23818 -3.19325 -1.88346 -0.694558 0.416682 -11.46
614 205 2 5.42102 -6.55457 0.691864 -5.24798 -1.60758 -9.74329
320 107 2 0.157498 -0.00392117 -2.30303 13.1919 -1.89572 -0.57591
275 92 2 3.42381 -5.57752 2.64855 -6.84725 9.01676 11.1439
134 45 2 4.01958 -1.26093 0.339309 3.44077 -3.22967 7.34847
133 45 1 4.82417 -0.703843 0.0544489 -6.20962 8.11113 -3.61747
467 156 2 2.90036 -0.63118 -1.93586 -4.36202 3.12009 -0.0265034
466 156 1 2.10021 -0.1918 -2.4018 -7.38796 7.15948 -6.01266
176 59 2 4.88541 -0.970783 3.17576 -8.76551 -4.5544 -2.46563
512 171 2 3.06135 -6.1846 0.236242 -4.58275 -2.10838 6.75209
511 171 1 3.4745 -6.37 1.17557 7.42536 2.4277 4.5454
513 171 2 2.85176 -7.03486 1.67679 -0.686617 -2.23594 -12.1005
618 206 2 -1.44519 2.17109 -2.57005 -3.26673 10.6301 -17.6423
456 152 2 -6.26647 6.75361 -1.55755 -5.73718 2.2826 -3.93778
616 206 1 -2.19228 2.81572 -2.89667 1.96268 -20.8061 23.0001
617 206 2 -2.99301 2.3012 -2.50049 -3.64923 6.23401 -9.14063
454 152 1 -6.78029 5.97937 -1.98541 -0.529141 -14.6111 3.5844
419 140 2 -4.00732 7.24255 -2.45429 -2.87703 11.2649 6.43345
364 122 1 -5.15049 2.09709 3.02473 2.28449 14.9577 -8.76512
151 51 1 -7.24903 3.2856 -0.701795 -4.1157 6.76182 -7.49611
309 103 2 -4.41564 4.35048 -3.09492 7.33038 -2.42466 -1.19167
308 103 2 -5.86431 5.04346 -3.02208 -3.95866 0.04992 -10.5186
110 37 2 -4.12455 4.45722 0.534878 -2.72183 -5.70042 6.24061
111 37 2 -5.32807 4.164 -0.651592 9.48964 -0.900347 7.26705
157 53 1 -2.66552 6.23924 -1.74931 -6.34751 -9.57316 -2.8917
158 53 2 -1.88374 6.40282 -1.1155 1.4978 10.9678 -1.50332
96 32 2 -4.81663 0.376644 -2.59641 3.22176 -4.10373 -1.74622
109 37 1 -4.3448 4.42265 -0.454245 -4.88441 3.51435 -17.5465
94 32 1 -4.06269 0.695572 -1.98732 2.95494 8.2647 2.09565
409 137 1 -7.17374 1.27173 1.39929 -3.8229 21.2738 -2.47597
410 137 2 -7.0565 2.05957 0.738687 -4.60029 -0.826571 2.96016
590 197 2 -1.8072 3.71302 0.619312 -6.91433 -1.39781 -7.62565
589 197 1 -1.2885 3.39382 -0.20876 7.33886 0.776061 10.8655
159 53 2 -3.22966 5.45749 -1.39067 -3.67221 1.95648 2.75639
591 197 2 -1.68694 3.72453 -1.09187 -5.9007 -1.54882 -0.867712
570 190 2 -0.421669 2.05619 0.240236 4.08592 3.33285 -0.610742
400 134 1 -3.17879 3.87407 2.21412 -31.4293 11.6663 8.35003
401 134 2 -4.04403 3.3314 2.40426 12.1954 -26.6574 -5.82845
569 190 2 -0.10633 0.439947 0.581158 7.64289 7.36239 7.74856
402 134 2 -3.58374 4.65882 2.72331 17.5036 11.3314 3.03478
319 107 1 -0.730279 0.350114 -2.63195 -13.638 -6.15045 6.83661
411 137 2 -6.90015 0.441717 0.825926 -2.21984 -2.09565 0.505788
365 122 2 -5.89036 1.76586 2.38073 -0.839008 -0.173872 5.40485
254 85 2 -2.0931 2.83019 3.12617 -6.15789 1.06165 1.61414
317 106 2 -1.36882 5.71943 2.65304 -3.98369 -1.556 2.98195
255 85 2 -0.814838 1.97447 2.61511 3.4968 -4.53737 6.1179
601 201 1 4.71122 6.74613 -1.35054 -20.843 -10.5566 19.0174
486 162 2 3.88191 6.79676 -3.17393 -2.92234 12.2603 3.57074
455 152 2 6.7812 6.13728 -2.06212 -0.75753 11.2247 3.88471
304 102 1 1.02596 6.88882 -3.09255 15.027 8.13752 12.5505
152 51 2 7.05347 4.25974 -0.915299 5.83633 -10.4995 4.76984
153 51 2 6.78355 2.70609 -1.38037 2.62422 3.72354 6.42832
568 190 1 0.288192 1.40233 0.619373 -9.40639 -7.21903 -5.59154
36 12 2 0.0126912 7.01392 -0.416927 -3.87651 -2.31718 -1.21754
291 97 2 1.16745 5.58823 0.489042 4.26681 8.66421 -7.49171
289 97 1 0.809982 5.34061 -0.447274 -9.48505 -9.71121 13.0341
602 201 2 4.56742 5.91024 -0.732703 9.70524 5.77944 -9.40998
605 202 2 4.90294 2.65942 -3.00961 6.23326 -13.3714 11.2279
135 45 2 4.95361 0.0873602 0.694181 -0.544093 -7.07957 -3.50873
606 202 2 4.91062 1.45296 -1.85305 -2.57464 0.753155 3.03671
604 202 1 5.50264 2.08602 -2.38261 -5.58431 8.82713 -12.0706
260 87 2 5.99463 0.0042926 -3.18579 -12.6156 -12.3164 3.20612
306 102 2 0.839309 6.33442 -2.24378 -13.2582 -6.63098 -11.7551
468 156 2 1.88728 0.739592 -2.04392 9.55759 2.31321 1.82976
263 88 2 3.22234 2.55964 1.20096 4.56961 -9.06564 -3.18573
386 129 2 3.66582 4.05187 0.194983 -9.95957 -9.42034 -6.83466
385 129 1 4.37307 4.74625 0.440284 6.06653 10.807 1.52625
387 129 2 4.66623 4.48396 1.37524 5.22737 0.428307 1.23762
262 88 1 2.61207 2.71611 0.38521 -15.8488 -2.77979 -4.42467
264 88 2 1.7708 2.0959 0.436882 8.41059 9.59765 3.6382
116 39 2 1.99917 5.35376 2.15147 4.38675 1.68784 -0.68205
115 39 1 1.72078 6.34057 2.03198 0.966609 -10.0301 12.5134
249 83 2 5.66951 1.723 1.73567 -12.5718 4.75033 6.66193
247 83 1 4.66459 1.92975 1.93154 10.444 6.74316 -6.03165
290 97 2 0.431519 4.38254 -0.315645 3.67483 13.2595 -10.7136
248 83 2 4.34968 1.35228 2.74011 11.5774 1.03866 -10.3082
117 39 2 1.69592 6.61534 3.03785 -5.93439 11.9492 -8.55382
360 120 2 -5.79468 -0.655632 4.88343 6.0149 7.29156 1.6734
359 120 2 -5.25535 -1.04724 3.45993 10.6086 9.89075 4.07429
358 120 1 -5.10519 -0.316162 4.20475 -14.6372 -13.3578 10.184
325 109 1 -5.43814 -0.51395 8.76181 -8.19878 13.0515 21.5587
326 109 2 -5.94613 -1.37122 8.5271 5.3176 -8.91827 -7.56942
327 109 2 -4.46966 -0.501967 8.41319 -5.14781 -8.46001 -14.8001
348 116 2 -6.60633 -6.34727 3.59736 3.11448 -0.688097 5.32343
92 31 2 -1.8777 -0.178993 3.97342 2.56806 -6.46231 -7.27225
520 174 1 -5.3578 -3.13151 5.47129 7.59191 -2.1493 10.0456
521 174 2 -6.00057 -3.12613 4.70124 -6.69828 -0.387863 -17.2047
91 31 1 -2.44027 -1.03081 3.93995 -0.686111 15.8975 8.9493
93 31 2 -3.3034 -0.757443 4.43241 -4.99557 -8.78155 -13.1282
522 174 2 -5.88502 -3.03606 6.33387 -2.83664 1.01244 11.8785
534 178 2 -3.24987 -1.87055 6.50527 -4.46857 5.27027 8.87154
560 187 2 -2.47613 -4.75763 5.21393 -10.8065 8.31114 -13.8186
559 187 1 -2.89506 -4.08635 5.88882 3.1783 7.22797 40.4359
561 187 2 -3.84381 -3.71705 5.6949 -1.05616 -6.28932 -13.94
17 6 2 -4.08645 -6.02713 6.84334 -2.79619 5.00807 5.63282
532 178 1 -3.47481 -0.988996 6.98936 8.1977 -19.5135 -10.2387
533 178 2 -3.20078 -0.232277 6.36255 1.21213 10.7469 6.25772
333 111 2 -6.12772 -3.446 9.0845 -4.83248 -7.69102 7.92617
331 111 1 -6.57683 -2.98787 8.30288 -0.086581 12.6883 -19.3291
213 71 2 -1.93444 -4.30359 7.34709 2.00539 -1.37351 0.59021
211 71 1 -1.30868 -4.50007 8.14627 -2.61562 -1.2593 16.091
212 71 2 -1.72482 -5.13973 8.83543 3.6681 2.83823 -15.9498
595 199 1 -1.75583 -5.38509 4.00803 -6.63556 1.21592 -1.86624
428 143 2 -5.93248 -6.93145 5.44109 10.6738 -23.4467 -1.50678
16 6 1 -4.43889 -6.95204 6.61506 -1.16448 -9.6937 0.848443
596 199 2 -1.8702 -6.31296 3.59212 12.1943 -9.75868 0.14709
597 199 2 -0.798916 -5.1002 4.23705 -0.592979 -6.76467 -13.0767
303 101 2 1.77857 -0.658862 3.46622 -2.17425 -6.55737 9.41491
252 84 2 5.12748 -2.95446 5.20472 -2.23934 -8.8348 3.96856
301 101 1 1.3448 -1.52872 3.79433 -2.68071 2.76609 -0.983423
3 1 2 7.09342 -0.0953459 9.43892 -0.759934 -3.20396 -11.3601
544 182 1 0.853271 -4.18362 3.81613 2.68953 -13.6564 6.62188
276 92 2 2.53631 -4.73127 3.94008 5.30175 -9.79379 -19.538
546 182 2 1.17273 -3.19959 3.86443 -6.62968 5.67499 -7.27386
62 21 2 4.97552 -4.86655 4.36584 -3.82754 -3.26204 -9.90408
61 21 1 5.86137 -4.54465 4.77029 1.63819 7.77007 16.3259
63 21 2 6.63191 -4.4408 4.10363 -2.17661 -10.835 -6.93603
302 101 2 1.20132 -1.54482 4.80597 8.24184 9.1123 1.62676
545 182 2 0.690074 -4.53168 4.77262 7.94704 8.52833 1.08144
250 84 1 5.0301 -2.12837 5.8042 -2.48074 -6.27902 3.92853
251 84 2 5.83503 -1.58169 5.53354 7.51289 17.9578 3.71543
398 133 2 3.42052 -1.43209 6.24198 -15.5358 -10.4265 0.287916
397 133 1 2.41456 -1.5084 6.52402 17.4751 -0.532523 -9.34712
399 133 2 2.30047 -0.930006 7.37071 -6.79082 -7.95771 2.17502
355 119 1 1.54785 -0.547374 8.88476 -6.76471 12.0835 7.72252
242 81 2 2.7008 -5.76543 6.41919 4.30464 7.68177 3.0853
243 81 2 3.84667 -7.0458 6.64656 3.21471 5.39254 -0.377668
332 111 2 6.96909 -3.077 8.30513 3.42775 -3.76525 9.07492
204 68 2 4.2228 -2.40418 9.03411 11.3571 -9.31436 -9.73438
266 89 2 1.06788 -4.30447 7.57601 -6.8935 -2.21922 4.46277
267 89 2 1.60775 -3.25367 6.39816 0.489908 -11.4592 9.55024
265 89 1 1.34637 -4.24034 6.60171 11.0433 15.1579 -17.1151
356 119 2 1.92372 -1.20678 9.57446 10.782 -12.317 -4.58356
203 68 2 5.09741 -2.84947 7.61779 -10.9959 3.92631 3.71075
202 68 1 4.90086 -3.06614 8.60805 4.01223 3.00006 -1.78342
1 1 1 6.08507 -0.12471 9.61846 -2.87974 -1.56627 11.8142
274 92 1 3.44579 -5.05494 3.55414 10.6945 1.10908 5.25225
175 59 1 4.61693 -0.0486575 3.55794 16.4835 -17.4635 7.08669
241 81 1 2.90237 -6.68002 6.83698 2.409 -9.62756 -1.59018
372 124 2 6.31894 -7.1531 5.96978 -15.9971 -4.55869 -7.54665
50 17 2 2.11913 -7.18768 5.45351 -12.0985 -5.27324 -17.3954
451 151 1 2.69272 -5.54451 9.66175 -8.94104 22.4076 0.941267
453 151 2 3.01225 -5.86951 8.75736 3.67325 -9.45369 -3.52146
186 62 2 5.78773 -4.63761 9.46616 -8.05007 6.12701 -8.45229
366 122 2 -5.03388 1.37036 3.74207 -0.0251804 -6.75351 -3.22439
432 144 2 -1.68044 1.53476 5.19416 3.97453 -4.41623 2.74805
125 42 2 -6.6131 0.554741 5.90582 5.20923 12.0088 8.20907
574 192 1 -1.59497 6.92277 8.48396 -18.397 -0.774794 3.71645
253 85 1 -1.38817 2.15446 3.44172 3.98786 -3.54019 -3.43989
429 143 2 -6.2251 6.01961 4.7025 12.0874 11.4649 13.4678
427 143 1 -6.37467 7.03654 4.72476 -20.9693 9.73633 -16.6522
510 170 2 -3.25725 4.84382 5.68083 -0.28822 -13.922 -1.22858
509 170 2 -4.01624 6.21448 5.79277 -7.36404 7.84171 -12.9298
417 139 2 -5.11688 3.0926 9.09957 -1.81893 -2.98726 5.88996
508 170 1 -3.80878 5.48236 5.09135 11.298 3.43199 3.9624
431 144 2 -1.30719 0.393144 6.462 1.50944 4.67544 -5.44864
430 144 1 -1.95172 1.09286 6.09123 -0.195905 9.27237 -5.33381
415 139 1 -4.17908 2.67322 9.06433 10.1592 -4.78663 0.610747
5 2 2 -6.59369 6.58323 8.8587 1.15972 0.396771 3.40883
4 2 1 -6.33365 6.15252 7.95426 -7.23009 4.4007 0.059644
354 118 2 -2.30912 2.83711 6.70962 2.45183 -2.85313 -14.9349
352 118 1 -2.66365 3.77646 6.89806 4.56133 -9.94096 12.709
18 6 2 -5.16188 7.21264 7.24745 5.76186 4.88146 1.07483
353 118 2 -3.11989 3.56421 7.79121 -13.8977 7.86342 2.61826
382 128 1 -6.90741 3.54722 9.38629 -4.78521 7.59802 -14.9701
6 2 2 -6.37098 5.15084 8.1333 4.90308 -5.25367 1.97803
318 106 2 -2.59293 6.13979 3.78924 1.32019 -5.22881 4.53986
316 106 1 -1.75831 6.43007 3.26646 -0.744998 10.8546 -0.704071