ITEM: TIMESTEP
11000
ITEM: NUMBER OF ATOMS
648
ITEM: BOX BOUNDS pp pp pp
-7.3306269478357553e+00 7.3306269478357553e+00
-7.3306269478357553e+00 7.3306269478357553e+00
-1.6290282106302037e+01 1.6290282106302037e+01
ITEM: ATOMS id mol type x y z fx fy fz
489 163 2 -5.80462 -2.43533 -14.7407 -12.5027 3.42013 5.03051
487 163 1 -6.62687 -2.46509 -15.3638 12.357 -17.2209 -32.9866
170 57 2 -2.15531 -0.960337 -12.7519 -15.5419 7.67058 15.7286
599 200 2 -6.46079 -2.96656 -11.6575 0.134256 -1.60851 0.218409
172 58 1 -5.39718 -1.55931 -13.0394 -15.6913 7.59571 -11.7467
173 58 2 -4.43135 -1.44528 -12.7273 9.64171 7.01302 4.64623
174 58 2 -5.7331 -0.638902 -13.4322 6.13164 -17.3664 13.832
169 57 1 -3.02544 -0.590118 -12.2867 14.3719 -11.6756 -7.06775
632 211 2 -1.26111 -2.49258 -13.7808 -2.59179 -7.41037 -14.9758
631 211 1 -0.957334 -2.20434 -12.8677 -2.49282 6.84702 7.35156
633 211 2 -0.00250134 -2.50337 -12.7263 5.72866 -2.40441 7.72042
163 55 1 -5.80423 -6.93782 -14.7382 -10.8901 27.2442 33.4901
165 55 2 -6.32259 -6.28279 -14.1037 9.76064 -12.1329 -21.2126
422 141 2 -6.2477 -7.05684 -16.2193 2.15533 -6.83145 10.0488
621 207 2 -2.14815 -4.66573 -10.2352 20.9968 0.806915 -2.85018
620 207 2 -1.565 -3.47262 -11.0171 15.6079 -1.64183 0.467655
619 207 1 -1.22536 -4.33223 -10.5621 -32.4996 -2.06679 1.89495
122 41 2 -6.79624 -0.674657 -9.78119 14.4943 18.915 -17.2451
208 70 1 -3.77086 -7.02941 -10.0821 11.9291 -5.5553 -4.8156
634 212 1 -3.26647 -2.41991 -10.2373 -1.39924 -5.88572 3.8938
636 212 2 -3.03043 -1.74746 -10.9702 -3.62161 5.86591 -7.77772
639 213 2 -0.0350825 -5.30151 -9.85186 -6.44502 -1.24595 2.05499
488 163 2 7.14433 -2.35082 -14.8514 8.48101 4.35526 12.3662
598 200 1 7.30843 -3.40115 -11.399 4.17874 16.1668 -0.0192791
142 48 1 6.93446 -5.663 -13.0333 19.8043 20.3727 -10.4674
600 200 2 7.17883 -4.2067 -12.0213 -4.15132 -10.8452 -1.41179
224 75 2 1.44693 -0.273822 -10.8188 -3.78814 0.266792 0.316463
143 48 2 6.89543 -6.66332 -12.8458 -11.0891 -6.36614 -3.10016
144 48 2 6.41695 -5.30954 -13.8941 -1.26444 -15.8952 25.8874
435 145 2 6.63125 -2.02935 -12.6797 -2.98668 -2.06229 -5.63956
434 145 2 6.9657 -0.750172 -13.6711 6.95029 8.69847 0.433206
433 145 1 6.40529 -1.60001 -13.5893 -22.4547 -2.63895 15.6488
282 94 2 3.25861 -1.8884 -14.7357 9.63171 6.71282 6.97793
280 94 1 4.19204 -2.11853 -15.0982 9.12468 -5.99249 -13.1454
281 94 2 5.02263 -1.85402 -14.5195 -17.4119 2.49327 4.01221
584 195 2 1.88519 -0.655505 -13.0844 -3.18953 -1.59896 -2.96504
583 195 1 1.99325 -0.254564 -14.0182 -0.289256 -11.4487 15.0464
84 28 2 1.62159 -3.90658 -14.3962 1.56205 -6.43854 0.702537
82 28 1 2.08819 -4.27246 -13.5551 1.16485 -17.0521 3.78756
514 172 1 5.14998 -4.75575 -14.6448 -4.76371 6.63272 -16.4283
206 69 2 1.8598 -2.95732 -12.2074 11.3867 0.583903 7.88477
205 69 1 1.94168 -2.16467 -11.5463 -3.53715 -0.777416 -3.31326
83 28 2 2.32232 -5.29759 -13.634 -7.82908 26.6835 -6.01314
515 172 2 4.36368 -5.32402 -14.3322 -4.26034 -0.47706 1.51843
516 172 2 4.79178 -3.83342 -14.9401 -0.880285 -2.80078 2.66038
147 49 2 3.81941 -7.2909 -14.7453 1.66892 -8.68477 7.04428
145 49 1 2.94453 -6.88144 -14.3967 8.46308 16.5092 2.33171
123 41 2 7.05212 -2.1461 -9.9076 4.52067 -0.865 -7.38476
207 69 2 2.5443 -2.42057 -10.7355 -1.77239 0.477847 -12.9947
14 5 2 0.739255 -1.93301 -14.5605 1.90293 9.65181 -11.3387
15 5 2 0.0377786 -2.03796 -16.0785 -0.363352 11.43 -5.20869
13 5 1 0.524737 -2.55446 -15.3435 3.25479 -13.8638 8.89726
105 35 2 -5.13397 0.761397 -10.1545 -1.48749 2.21467 1.7666
612 204 2 -7.11014 1.36372 -12.9695 5.29245 9.39692 20.0996
611 204 2 -6.85717 1.1755 -14.5494 8.51772 -3.74543 -9.07297
610 204 1 -6.68941 0.715462 -13.636 -9.95092 -10.41 -1.98122
623 208 2 -6.83213 2.05448 -10.7812 4.65252 -4.02732 2.71674
171 57 2 -3.17157 0.399123 -12.4916 4.75701 7.84207 -1.86054
294 98 2 -3.0888 5.92822 -13.5996 -2.18397 -1.70205 4.14974
361 121 1 -2.08354 1.65036 -15.9618 1.73875 6.03923 9.21869
164 55 2 -5.40286 7.06422 -14.0682 2.71135 -13.8412 -3.97631
292 98 1 -2.20263 5.73699 -14.0643 1.83278 1.42036 -6.16644
362 121 2 -2.82299 2.01352 -15.282 9.22758 -17.4164 -11.8178
237 79 2 -5.26212 4.83475 -12.3134 -0.891944 0.762043 -1.45957
471 157 2 -3.89326 2.39349 -13.4259 11.0892 -0.873015 -1.68565
469 157 1 -4.0117 2.31904 -14.4504 -23.952 7.31294 8.69188
470 157 2 -5.01032 2.45959 -14.6386 9.05106 -1.43097 -4.05988
129 43 2 -3.48685 2.82816 -11.1592 -9.91045 8.83366 -12.1148
235 79 1 -5.40429 5.39559 -13.1571 11.0377 12.3799 0.083679
127 43 1 -3.10124 2.26121 -11.9166 -5.71187 -4.41488 34.643
128 43 2 -2.23897 1.956 -11.4444 7.92277 0.390828 -22.1732
198 66 2 -1.35441 3.06463 -14.9959 2.40287 -10.6385 -0.310508
197 66 2 -1.28819 4.29379 -13.9184 5.96041 -18.5346 -6.20852
622 208 1 -7.25993 2.44579 -11.6282 -7.63098 5.04313 -1.39773
31 11 1 -4.40306 4.9059 -10.4666 -2.76643 -26.9065 -3.10091
32 11 2 -3.79425 5.71188 -10.4356 5.06579 17.8969 -0.860123
236 79 2 -6.05706 4.97798 -13.829 -6.81441 -8.02037 -1.56375
188 63 2 -0.0318523 6.49936 -14.0736 -4.46088 14.5172 -4.26381
646 216 1 -7.23329 4.18222 -14.8846 -18.1843 -1.11451 -5.97659
481 161 1 -0.327181 2.2695 -11.9809 12.0685 -25.3524 38.3268
482 161 2 -0.444986 2.57201 -12.9533 -6.79839 9.30377 -13.1244
33 11 2 -5.19855 5.02235 -9.85302 -4.26193 4.6537 4.81118
196 66 1 -0.791259 3.41089 -14.2117 -3.40869 36.5376 -7.70174
293 98 2 -2.41967 5.68474 -15.0686 0.474914 -3.85914 -0.825326
199 67 1 -6.90601 1.74535 -15.975 -8.09273 -29.4742 -17.5317
190 64 1 5.95779 6.50479 -11.7983 3.06286 2.37936 4.44551
191 64 2 5.99877 5.61052 -11.2558 -1.96808 4.64056 -4.59964
47 16 2 1.45048 6.40825 -16.2262 -8.29091 -8.55221 -8.50733
585 195 2 2.77491 0.400613 -13.894 5.79811 3.22375 -4.14598
226 76 1 1.67693 4.13798 -11.2274 14.8901 -12.7975 -21.2997
228 76 2 1.8838 4.82641 -11.9517 3.39734 -7.11332 -0.625474
227 76 2 1.09523 4.69432 -10.578 -7.51586 10.5652 8.63838
540 180 2 1.01134 2.85063 -14.933 8.36625 -3.57111 -6.84593
223 75 1 1.32356 0.647501 -10.3867 2.98947 6.97038 -5.76499
225 75 2 0.705223 1.25043 -10.9496 -2.22256 -11.5277 0.796309
538 180 1 1.84653 2.89192 -15.5408 -10.2793 6.32388 8.40083
99 33 2 5.53064 6.54151 -13.28 -0.0886053 -4.00889 -10.0592
97 33 1 5.39767 6.40933 -14.3115 -5.15795 2.77526 2.74408
98 33 2 5.96877 5.60116 -14.5469 4.9863 -2.66045 -4.04479
189 63 2 0.664722 5.14712 -14.2112 10.1552 -7.07921 -9.17027
187 63 1 0.851344 6.12777 -14.4154 -10.0689 -14.9778 14.1078
539 180 2 2.60187 2.28122 -15.2111 -4.11737 1.80348 -4.34621
298 100 1 4.21045 1.19161 -13.4151 1.00466 2.49961 1.84905
299 100 2 4.51169 1.8642 -14.1242 -0.543195 0.28487 -7.23377
300 100 2 4.99899 0.945621 -12.8226 -1.78459 -0.695754 0.443363
647 216 2 7.2183 3.18256 -14.9019 6.46276 -2.45088 11.289
58 20 1 4.65015 2.43327 -16.0171 14.2891 -24.3102 5.18813
648 216 2 7.28724 4.30075 -15.8968 14.6943 14.4912 5.02112
192 64 2 5.54823 7.19823 -11.1854 -0.793856 6.0093 3.82791
624 208 2 6.93174 3.31517 -11.3443 -2.32493 -2.26088 -0.429108
146 49 2 2.2549 7.03767 -14.2122 -4.58815 -0.980681 -5.32109
483 161 2 0.485957 2.72742 -11.5662 2.75682 14.5164 -5.33944
463 155 1 5.75515 4.4027 -10.312 14.5146 -5.24095 -1.65187
7 3 1 0.387048 5.81809 -9.91258 -24.473 32.3326 21.3302
465 155 2 4.84353 3.96031 -10.2018 -8.21617 -4.31292 4.95902
479 160 2 3.56426 2.4366 -9.97777 3.98035 -5.18314 11.0882
480 160 2 2.7332 3.76151 -9.98005 -4.57019 3.47827 2.10569
210 70 2 -4.7256 -7.08052 -9.73917 -0.0309908 6.41589 6.26976
209 70 2 -3.09235 -6.54315 -9.49569 -11.8055 -2.08911 1.75438
149 50 2 -2.83099 -7.08765 -3.54413 -15.2971 -0.335335 1.48445
319 107 1 -1.74351 -0.781024 -3.90676 11.3792 0.43469 0.122614
121 41 1 -7.32131 -1.37045 -9.30962 -21.0573 -14.2421 29.3111
12 4 2 -5.24251 -4.85744 -7.91009 3.66705 7.72175 -4.40388
10 4 1 -4.29473 -4.45828 -8.06664 13.1341 -13.9085 3.39706
11 4 2 -4.16689 -3.87759 -8.89826 -9.49903 4.00956 1.23909
229 77 1 -7.22329 -5.60857 -4.921 3.92941 20.2344 -9.9062
230 77 2 -7.04356 -5.71594 -5.93271 5.10831 -0.830382 -3.95137
39 13 2 -5.89377 -4.22132 -4.08453 -0.0890631 14.2273 -8.49498
336 112 2 -6.46631 -6.78367 -7.86484 8.6571 -3.10649 10.9446
307 103 1 -2.60304 -6.31499 -6.31031 -8.1227 -15.0744 1.96789
309 103 2 -3.40236 -6.57999 -5.7063 10.7064 8.43349 -4.34864
334 112 1 -6.57604 -5.80582 -7.54415 -29.4034 -6.19883 -23.716
38 13 2 -4.85999 -3.02475 -4.85363 -12.417 7.40223 -2.22463
37 13 1 -4.94955 -3.83773 -4.22785 17.8026 -19.431 10.4545
505 169 1 -4.72633 -1.47151 -5.72706 -17.6555 -0.629468 -2.39222
635 212 2 -2.86692 -2.05823 -9.35411 -0.82569 -2.16003 5.94104
321 107 2 -1.5469 -1.75072 -3.6886 -13.7917 -9.75329 5.48543
320 107 2 -0.929802 -0.607264 -4.49735 0.281166 8.5883 -3.94058
450 150 2 -0.557282 -6.40789 -6.49494 0.750409 1.49905 -11.0709
246 82 2 -1.67739 -2.06555 -7.22163 2.20981 -17.2273 6.65599
244 82 1 -2.24431 -1.58735 -7.89664 -3.52231 11.9284 -0.68499
308 103 2 -2.95102 -5.79192 -7.11687 -3.87711 7.36923 3.14061
245 82 2 -1.84314 -0.638371 -7.83407 2.29208 3.58774 -5.43402
68 23 2 -7.19032 -0.374759 -7.72702 8.71839 5.02435 12.6576
507 169 2 -5.58002 -1.10613 -6.18693 5.94859 -2.69895 7.34894
151 51 1 -4.52911 -7.15977 -4.32855 -13.1309 14.7498 -13.6554
153 51 2 -5.10318 -6.31446 -4.48589 7.63985 -3.20551 4.72729
506 169 2 -3.94016 -1.11016 -6.24354 10.8422 -0.51326 -5.02091
425 142 2 -2.82832 -4.06674 -4.92849 -1.34269 0.3218 -0.484629
424 142 1 -1.87215 -4.01408 -4.58012 10.2772 0.0231024 8.65717
426 142 2 -1.61263 -4.94878 -4.22295 -5.72062 6.09999 -1.17951
81 27 2 6.18134 -4.04591 -9.73983 -12.7918 -13.0608 5.71013
89 30 2 4.19163 -0.769723 -7.45603 8.68718 -2.59054 4.0865
637 213 1 0.673737 -5.793 -9.27541 -2.7967 1.22694 -15.0456
638 213 2 1.49415 -5.22025 -9.42145 8.40059 -2.18725 1.43722
90 30 2 5.64537 -1.48881 -7.49675 12.7132 -7.56627 -11.9286
88 30 1 4.92282 -1.21122 -6.86054 -18.5781 8.28241 8.68476
27 9 2 3.13172 -1.85612 -9.00671 9.54409 -5.13924 1.52779
25 9 1 3.54828 -2.7332 -9.36075 -14.0168 6.20788 -10.0344
19 7 1 6.74187 -2.89102 -4.23611 -14.0457 25.5501 -1.89007
21 7 2 6.62225 -2.0972 -4.89508 6.25326 -18.1627 7.21492
231 77 2 6.95331 -4.69292 -4.86398 4.86113 -9.32709 10.3277
79 27 1 6.02255 -4.86031 -9.11828 10.0272 -7.22473 5.48729
80 27 2 5.06516 -5.07743 -8.81361 3.91491 15.1825 -8.02328
335 112 2 7.23928 -5.52878 -8.10941 15.5454 8.80932 10.709
449 150 2 0.58243 -6.5602 -7.79553 -10.4316 10.8871 4.21953
261 87 2 4.64779 -0.868484 -3.73396 1.52691 3.12979 -0.375725
26 9 2 3.20424 -3.56742 -8.87164 6.79638 4.26234 11.0287
259 87 1 5.41456 -0.444669 -4.2593 -12.4351 -12.3105 -4.31711
448 150 1 0.431348 -6.49571 -6.77074 6.53476 -7.95442 21.1646
283 95 1 4.33631 -4.65116 -5.27529 -0.694217 22.4911 24.9965
285 95 2 3.66555 -4.67684 -4.50117 2.44739 -11.7552 -2.09299
272 91 2 3.53384 -6.61683 -7.54709 -1.97484 8.73486 0.638983
548 183 2 3.68068 -4.72597 -6.61896 7.22134 2.92363 -5.56059
547 183 1 3.16942 -4.79587 -7.53272 -7.23779 -8.61958 -6.99261
549 183 2 2.22032 -5.01743 -7.25199 -10.181 -0.989713 -0.95766
260 87 2 5.2291 -0.580422 -5.27394 0.645138 3.33514 0.0210928
284 95 2 4.93978 -3.8573 -5.02194 3.42669 -9.51586 -7.38528
443 148 2 0.973466 -6.74099 -4.92099 12.0742 8.13805 -1.03396
442 148 1 0.779129 -6.93377 -3.93363 -7.8677 -9.71359 -20.7332
269 90 2 1.63397 -1.75703 -3.77063 -0.358484 -5.54298 9.25729
268 90 1 0.911487 -1.77579 -4.48623 -17.2199 -2.39249 -9.46168
270 90 2 0.211995 -2.53721 -4.43528 19.0831 5.47722 2.79193
456 152 2 6.97781 -7.13744 -4.75289 -10.6398 1.30196 11.1877
476 159 2 2.48129 -0.0485751 -5.54158 0.295584 -16.2686 0.138853
20 7 2 6.53 -2.43928 -3.32952 5.79731 -18.0273 -9.09577
103 35 1 -5.81891 1.25307 -9.57653 5.00578 -3.16191 -8.11507
104 35 2 -5.38064 1.52736 -8.69806 0.215972 -0.443005 3.4641
85 29 1 -2.30688 5.38015 -5.71295 -11.201 -16.2381 15.4282
86 29 2 -2.56938 4.97752 -4.77719 6.62011 10.8729 -9.32629
87 29 2 -2.43611 6.38345 -5.61019 4.40886 6.78511 -5.2685
24 8 2 -5.42856 0.976523 -6.7373 1.7452 -4.05596 2.262
444 148 2 -0.132953 7.29315 -4.10058 -4.98565 5.97761 13.1137
119 40 2 -7.00426 5.66601 -7.90227 -15.9076 -3.54997 1.09717
342 114 2 -1.49868 4.90653 -7.40368 -8.51356 2.61761 -5.06706
340 114 1 -1.81879 4.82757 -8.38295 15.5488 0.296779 -1.79969
118 40 1 -6.13379 6.18411 -7.91837 3.69399 24.87 -15.3534
341 114 2 -2.80171 4.59838 -8.42398 -7.28299 -0.319402 -0.494619
22 8 1 -4.63299 1.63889 -6.72069 -1.89114 11.53 0.442756
645 215 2 -2.10302 2.20631 -4.57345 -1.22752 3.14539 -0.432174
312 104 2 -1.08979 1.49624 -7.69971 2.10812 8.27564 -2.86044
310 104 1 -0.749016 0.573017 -7.47864 -1.32607 -4.56668 7.68666
492 164 2 -4.70909 3.22434 -6.97967 0.757863 4.07623 -4.25826
23 8 2 -4.69965 2.2128 -5.86085 -1.69523 -15.6705 5.19127
644 215 2 -1.62273 0.999028 -3.57973 -1.44205 -6.34005 5.21359
643 215 1 -1.58455 2.01067 -3.72461 0.327844 2.65074 -5.66437
67 23 1 -6.78896 0.0605908 -6.8647 1.3287 -10.9111 -15.3326
490 164 1 -4.64075 4.2555 -6.93242 12.2573 2.92437 -1.21066
491 164 2 -3.7331 4.5094 -6.52218 -1.06443 3.33472 3.41095
120 40 2 -5.41457 5.62768 -7.45521 5.14639 -16.0235 6.1834
94 32 1 -4.91883 2.2576 -3.95302 13.9931 -20.9321 6.98137
152 51 2 -5.05009 6.74279 -4.7587 -0.169367 -8.90959 3.12118
605 202 2 -6.67042 1.33745 -3.83072 3.56866 -2.05618 -2.322
9 3 2 -0.514038 5.42792 -9.65947 -10.3966 -22.381 4.01413
96 32 2 -4.4175 1.38174 -3.76371 -5.43449 3.01732 -12.1794
464 155 2 5.98169 4.72193 -9.35449 -2.76282 3.0769 3.02004
273 91 2 2.97981 6.47201 -7.34638 -10.6285 -1.84087 4.15598
271 91 1 3.75738 7.05547 -7.62401 8.47338 -5.39097 -4.94551
606 202 2 6.79996 0.118653 -3.73708 -2.2181 7.15648 0.621622
8 3 2 0.174171 6.75154 -9.54068 21.2891 1.89011 -9.81039
43 15 1 5.53727 1.82389 -6.01271 3.76993 0.0975835 7.56154
45 15 2 5.34618 1.90427 -5.0054 10.7489 -3.46752 -4.99592
44 15 2 4.90082 2.4603 -6.46313 -4.78211 5.75002 -10.1473
454 152 1 6.46761 6.7022 -4.37218 -4.29061 -15.5749 -16.9094
311 104 2 0.199219 0.605454 -7.09569 2.71107 1.07032 -2.30609
617 206 2 0.237489 2.27057 -3.6016 -5.28732 7.08522 -4.2641
618 206 2 1.03487 3.52938 -4.40491 -3.30787 2.6568 -1.93815
616 206 1 1.13357 2.61029 -3.98124 13.1848 -9.37165 0.746837
455 152 2 6.00696 6.9644 -3.48167 8.46675 1.74404 3.24053
181 61 1 3.22557 0.0843568 -8.5877 -2.37451 10.6421 5.15611
69 23 2 7.32759 0.887266 -6.62771 -16.6922 2.93171 2.91306
183 61 2 2.62926 0.621334 -9.22889 -4.12554 -14.7221 -16.458
179 60 2 3.11614 4.49224 -6.12249 -0.105843 -3.90117 -3.75065
178 60 1 2.31095 4.33411 -6.74624 4.22682 8.2553 -7.47043
477 159 2 2.07117 1.49585 -5.40054 -4.6945 -5.10988 -17.0805
475 159 1 2.19761 0.738716 -6.09939 -3.45237 24.5542 15.215
180 60 2 2.56261 4.32037 -7.74926 1.71689 -7.47666 15.5861
182 61 2 2.95384 0.60821 -7.75461 2.00378 -5.29186 18.5034
478 160 1 3.43193 3.26865 -9.40367 -2.86004 -2.41626 -15.7228
502 168 1 5.79737 5.41702 -7.82649 -12.4202 13.6388 14.0533
503 168 2 5.00228 6.12542 -7.80758 18.7314 -13.9054 -5.81992
504 168 2 5.85138 5.13204 -6.84353 1.3082 -2.74282 -3.08215
445 149 1 4.60063 4.53231 -4.93918 -7.6972 3.99251 -5.91521
446 149 2 5.02636 3.80445 -4.3375 2.91059 3.21953 -4.12964
447 149 2 4.97497 5.4382 -4.63551 5.92953 0.27893 -2.31568
601 201 1 5.7527 2.78028 -3.33258 -3.92343 -12.724 8.32904
329 110 2 2.62162 2.00168 -3.31876 -0.386598 -5.93258 9.49387
148 50 1 -1.96985 -6.6673 -3.20988 26.0011 -4.89673 6.6056
150 50 2 -1.7255 -7.10136 -2.29806 -14.8654 8.29695 -12.8725
594 198 2 -6.48389 -3.07954 -1.23007 1.493 -3.48692 1.49934
567 189 2 -7.22468 -4.37391 -0.183699 -10.4836 -5.11318 -3.17718
339 113 2 -4.52861 -0.781728 0.734079 10.5536 12.0166 2.90612
350 117 2 -3.82972 -4.30467 -0.010834 -9.54614 -23.7473 -11.7805
558 186 2 -3.29329 -0.927932 -2.72405 -0.242154 -13.1455 1.07755
349 117 1 -3.97219 -4.9496 0.781572 25.9263 32.1478 9.1411
351 117 2 -3.58785 -4.32846 1.49974 -9.76398 -14.4857 7.36519
337 113 1 -5.1525 -1.50877 1.02784 -12.7057 -0.69621 -11.9059
238 80 1 -3.55159 -4.14742 -1.83761 -3.54242 16.8956 0.135631
240 80 2 -3.90371 -4.09432 -2.81395 10.556 -1.20395 -0.126447
239 80 2 -2.55422 -3.90474 -1.7157 -1.71336 -6.04908 -3.40936
374 125 2 -0.748339 -6.12879 2.36568 0.105413 2.8439 1.02829
166 56 1 -6.45039 -6.34377 1.68512 -16.1495 11.7727 17.2587
168 56 2 -5.54038 -6.57351 1.29809 5.69353 -2.5941 -5.98631
167 56 2 -6.90653 -7.19418 2.05792 1.76802 2.07325 3.1324
521 174 2 -1.44251 -3.02076 2.8134 -11.1894 3.31215 17.7783
559 187 1 -2.14372 -6.66535 1.88566 -23.1544 0.858759 -18.959
215 72 2 -1.37696 -1.28432 -0.54643 -1.38305 -1.99471 0.575902
306 102 2 -2.26502 -7.31895 -0.220427 -3.95038 -2.59472 -3.18753
537 179 2 -2.39237 -0.832362 1.49893 0.530456 17.3428 17.8044
535 179 1 -2.71518 -0.494443 2.43273 -8.05436 -8.6206 -12.0719
592 198 1 -6.12686 -4.0457 -1.35912 2.76555 14.4244 -2.09036
520 174 1 -0.848861 -2.75249 2.03445 19.0599 -9.04381 -39.2121
91 31 1 -1.17282 -3.35742 -0.56753 10.5284 12.603 5.37584
93 31 2 -0.968217 -3.26299 0.451762 -13.0287 -0.592663 -5.56426
560 187 2 -2.73989 -6.09272 1.23789 7.08773 -5.05028 15.2781
593 198 2 -5.1077 -3.95579 -1.57348 -11.3398 -9.9592 4.73547
338 113 2 -4.85003 -1.97089 1.85585 8.53399 -6.7187 19.96
279 93 2 -6.64596 -0.84159 -0.195963 12.6689 1.59492 14.8264
277 93 1 -7.02759 -1.44631 -0.9066 -23.9113 -6.53102 -31.3087
92 31 2 -0.202104 -3.30425 -0.934827 -3.76464 -8.44545 1.39384
420 140 2 -6.12869 -5.86044 -1.50608 -0.443163 4.19239 2.07321
557 186 2 -3.92416 -2.1198 -1.61455 7.72537 -11.3036 -4.22978
556 186 1 -4.02213 -1.21581 -2.05589 -5.42784 28.8452 1.96599
418 140 1 -6.17893 -6.85284 -1.77495 1.5573 -1.0557 -15.3453
419 140 2 -5.74997 -6.95047 -2.70509 -0.294627 -0.962843 9.94366
214 72 1 -1.57625 -0.334877 -0.226417 2.62906 -4.28763 0.855357
278 93 2 -6.78929 -1.06555 -1.82917 1.636 5.00066 4.748
522 174 2 -0.384146 -1.85365 2.11462 1.16048 3.57129 11.2436
373 125 1 0.119188 -5.58099 2.55189 1.56793 13.3608 -8.57203
375 125 2 0.238103 -4.99854 1.70711 2.44089 -6.68308 16.1861
566 189 2 7.15617 -5.39689 1.01691 -8.89918 4.58074 -11.7533
413 138 2 3.97251 -6.64553 -2.64388 -9.82857 -2.44197 0.0756574
523 175 1 2.85278 -1.26538 -2.02286 15.3544 -12.3077 6.48344
414 138 2 2.22679 -6.47499 -2.84101 7.98932 -4.41614 -6.56305
412 138 1 3.13585 -6.04369 -2.61981 5.58034 14.0571 5.47519
565 189 1 6.63511 -4.74412 0.369702 14.9454 2.80518 12.2942
524 175 2 3.14192 -0.27943 -2.08359 -5.68918 2.35745 -1.54201
609 203 2 1.9158 -4.30917 -1.14068 1.96437 -0.948054 2.27767
525 175 2 3.5729 -1.77212 -1.45876 -10.5695 6.52894 -10.9662
608 203 2 1.88429 -2.66631 -1.36037 2.71995 2.638 4.41262
607 203 1 1.44805 -3.44954 -0.85687 1.1647 1.20942 -12.5316
195 65 2 4.68072 -1.61441 0.945067 4.04542 -4.41307 5.43718
157 53 1 4.66812 -3.53433 -1.47288 14.1778 -5.09687 12.1392
158 53 2 4.35877 -4.47526 -1.69839 -7.34635 -2.62058 -7.12123
159 53 2 5.43896 -3.72213 -0.805624 -7.28703 5.42983 -4.87684
545 182 2 0.887195 -7.16044 3.19611 -1.65641 -5.10759 -12.2856
303 101 2 6.16707 -3.79829 1.76433 -9.90909 4.10601 3.23797
301 101 1 5.71016 -3.16022 2.44781 13.3457 2.62039 -0.267775
302 101 2 5.05726 -3.64138 3.07229 -2.19435 2.99973 -3.83429
194 65 2 5.87297 -1.0302 -0.0991117 -5.93202 -4.06661 4.98115
193 65 1 4.964 -0.842186 0.349857 6.24147 5.60695 -15.0115
386 129 2 6.78137 -7.20303 -1.8198 6.52771 2.64625 1.59769
604 202 1 -7.1375 0.661732 -3.22396 5.67301 -2.73152 9.87423
590 197 2 -2.18994 4.06758 -2.99311 -14.7741 16.9465 13.5873
589 197 1 -2.84962 4.86345 -3.14628 14.5998 -24.6684 -31.5327
591 197 2 -3.20117 5.33932 -2.33011 2.8166 4.04235 18.4241
95 32 2 -4.98026 2.59714 -2.99871 -7.41444 17.9978 1.91144
486 162 2 -0.610947 5.07523 -1.4232 4.19742 -3.98106 7.77972
484 162 1 -0.851724 4.11659 -1.09716 -13.0388 -20.7438 8.17328
305 102 2 -3.45324 6.18575 -0.246847 1.47715 10.2837 -5.91022
561 187 2 -2.76598 7.2829 2.26574 4.10367 0.029038 2.02323
347 116 2 -5.57218 6.76676 -0.638904 -11.9211 -3.14722 13.436
346 116 1 -5.46659 6.275 0.280272 33.963 -5.94444 -11.1283
348 116 2 -6.2707 5.76737 0.605246 -10.01 -4.78006 -3.11241
304 102 1 -2.88624 6.81395 -0.83796 7.10704 -8.36659 9.39642
110 37 2 -5.67997 3.42719 0.312502 -11.0572 10.2234 7.78113
111 37 2 -5.25728 2.35526 -0.760695 3.77583 -2.21025 -3.31329
109 37 1 -5.80013 3.22555 -0.684624 5.15609 -10.5075 -10.2485
570 190 2 -3.09771 4.15449 1.61442 6.81503 -1.42148 -1.7396
569 190 2 -3.865 4.33809 0.195432 0.602899 -2.56505 -3.51593
254 85 2 -3.02553 0.83034 -0.202037 6.63758 19.3161 7.75113
568 190 1 -2.92805 4.28964 0.597012 -6.78363 3.08176 9.74052
253 85 1 -3.95152 1.15492 -0.505092 8.83405 -25.838 -3.2444
485 162 2 -1.63369 4.09126 -0.397076 6.85516 7.81756 -13.5164
255 85 2 -4.10911 0.270577 -0.995839 -17.9884 2.30243 -13.5795
216 72 2 -0.803258 0.277999 -0.547011 -4.54436 5.10572 1.20205
115 39 1 -0.122123 4.876 1.86597 -2.33555 20.1534 28.8091
117 39 2 -0.956175 4.79603 1.29343 -0.543584 -10.7385 -9.23106
564 188 2 -0.17784 2.54879 -1.16678 0.59925 2.4354 -3.96501
409 137 1 -7.16774 1.18924 1.81625 9.08438 -29.8682 18.2122
410 137 2 -6.59997 0.54724 2.41846 -4.91023 20.7391 -12.7586
221 74 2 -6.63122 2.73171 1.64441 2.48879 6.35857 6.0357
536 179 2 -2.23656 0.362311 2.75281 9.78484 2.98981 -10.0018
359 120 2 -0.192466 0.873053 3.21803 -0.137969 0.134987 5.71295
358 120 1 -1.06077 1.4202 3.23758 2.99956 7.7073 -14.5105
222 74 2 -6.10593 3.62575 2.91777 -1.9832 10.1083 -12.087
220 74 1 -6.19812 3.65682 1.88496 -3.32759 -12.6701 16.8512
328 110 1 3.28339 1.44053 -2.74462 -4.75254 2.30255 -6.13518
330 110 2 4.23269 1.74286 -2.97742 2.8866 1.60856 1.42637
602 201 2 5.51268 3.50599 -2.63857 8.83293 -1.94251 7.98794
603 201 2 6.45187 2.15685 -2.87093 -8.95667 6.79465 -12.5632
34 12 1 0.476859 6.22532 -1.77538 2.58281 17.6905 -10.6934
35 12 2 1.47636 6.07797 -1.64737 2.15234 -4.81966 5.87137
36 12 2 0.405861 6.89173 -2.56736 3.52621 -3.34341 7.35322
135 45 2 0.722448 2.39035 0.728144 -0.36135 -3.34141 -2.25684
134 45 2 2.38424 2.58824 0.848373 -7.48603 0.775727 11.3806
133 45 1 1.46015 2.99357 1.09491 19.969 -12.0958 -5.34808
544 182 1 1.45495 6.69128 2.90954 28.8837 16.8218 12.464
116 39 2 0.634948 4.1742 1.74791 -9.56476 -12.0555 -16.0782
563 188 2 1.12672 1.48028 -1.52545 -5.42525 5.88357 -0.235182
562 188 1 0.204362 1.58734 -1.09183 4.95028 -10.1114 4.12838
550 184 1 4.16045 1.91131 0.52228 -5.02678 18.8758 -14.706
551 184 2 4.88555 2.43346 0.0211219 -0.00332048 4.45035 7.20402
552 184 2 4.12382 1.00484 0.0711471 1.78582 -15.9887 7.37756
614 205 2 3.97797 5.83666 0.198687 26.9327 4.09125 11.1658
546 182 2 0.968736 5.85053 2.61632 -24.2698 -3.06172 -8.85763
315 105 2 6.96748 3.55047 -0.895464 -10.0592 12.0889 4.00736
313 105 1 5.98258 3.89589 -0.899926 12.0116 -12.9917 2.38742
368 123 2 3.02712 3.99117 -0.408763 4.88392 4.9854 -0.778954
369 123 2 1.8256 5.02535 -0.0688603 5.25425 1.65074 0.843746
367 123 1 2.79387 4.98627 -0.412193 -16.8021 -2.79696 -2.72539
314 105 2 5.86347 4.75539 -0.34764 -1.77959 0.887605 -1.52564
411 137 2 6.58964 0.715217 1.78614 -5.67513 6.63622 -3.41104
385 129 1 5.7729 7.29466 -1.93862 -16.8166 3.74262 7.30786
387 129 2 5.37074 7.13899 -1.0026 3.91139 -3.83865 -0.888442
615 205 2 4.97463 6.48308 1.48469 -5.61988 -2.44935 -6.70586
613 205 1 4.95225 6.13793 0.516991 -12.4653 -0.5692 -4.96365
512 171 2 3.05112 6.1033 3.21893 -22.8398 -1.12784 -4.85956
371 124 2 6.78153 5.56854 1.98785 -3.71338 -8.53644 6.1104
370 124 1 6.8601 6.2396 2.74873 -5.48015 1.19487 23.6048
332 111 2 -2.84046 -2.83935 4.92016 -2.36545 2.78732 -2.667
175 59 1 -6.77906 -2.04649 4.45512 25.8171 23.2463 10.672
176 59 2 -6.65064 -2.60617 5.30974 -12.5631 -12.3987 -3.211
578 193 2 -0.275085 -3.76347 5.91871 4.12296 4.99725 -1.99706
579 193 2 -1.62038 -3.66648 6.96996 -3.67383 12.4651 -2.53399
577 193 1 -0.795388 -4.18443 6.69586 1.43255 -19.6273 2.32493
333 111 2 -2.32997 -1.75883 3.68377 -18.8222 -17.6921 2.21832
331 111 1 -2.68356 -2.7191 3.91465 9.26982 6.93184 12.1944
458 153 2 -5.33574 -2.64381 9.69487 0.672808 4.20537 -16.5878
457 153 1 -6.17782 -2.30663 9.17909 5.83669 -12.3535 33.2062
126 42 2 -2.891 -2.08717 7.26789 14.1097 2.16383 3.91962
250 84 1 -6.48275 -3.42532 6.9063 -2.7071 -12.1245 -19.5694
251 84 2 -5.88041 -4.24252 6.81222 1.0498 -1.26546 5.22098
125 42 2 -4.40763 -2.27719 6.81385 7.06388 -13.2763 -2.00445
124 42 1 -3.49804 -2.77385 6.81633 -14.2924 12.7407 -0.0413882
252 84 2 -6.46749 -3.09428 7.89633 3.73096 6.96 -4.86642
452 151 2 -5.00464 -6.8597 6.27244 2.54887 -8.40254 2.98788
533 178 2 -1.21392 -0.635316 8.77353 -0.414372 11.025 2.78888
534 178 2 -0.17311 -1.59208 7.87476 -18.2718 5.50544 0.0520005
532 178 1 -1.1711 -1.37054 8.07905 14.3381 -16.2785 -7.62369
595 199 1 -0.899937 -6.99176 6.52325 -8.04262 -3.39144 -4.80962
401 134 2 -5.64761 -0.741023 4.30333 -7.31298 19.2338 -8.25832
510 170 2 -3.88359 -4.43939 6.99463 -4.85863 -12.2293 0.838931
509 170 2 -3.18062 -5.90461 7.24013 -8.27358 -2.97386 0.332897
508 170 1 -4.0923 -5.4587 7.10469 10.4827 18.5273 -5.42044
596 199 2 -0.927163 -5.97986 6.33542 6.542 1.57936 3.33593
243 81 2 -2.3147 -6.41696 9.67926 7.80832 -0.185741 7.70237
241 81 1 -2.97542 -7.12664 9.38736 -1.97698 1.46387 -8.70308
185 62 2 -6.99772 -6.7599 9.52971 10.1347 4.47959 -5.88974
390 130 2 -4.74856 -5.9385 9.30177 -4.45103 -3.91211 5.70736
3 1 2 -7.30686 -0.811061 6.07296 -0.4204 3.85359 -0.636061
177 59 2 7.22625 -2.3103 3.72982 -9.98124 -16.636 -1.75653
63 21 2 1.77532 -3.05378 4.05456 3.61914 -4.26614 -0.200222
62 21 2 0.661903 -4.26709 3.90008 0.76946 4.00531 2.27243
61 21 1 0.942393 -3.46189 4.48558 -16.4289 -4.97371 -3.60933
5 2 2 3.77937 -4.43147 4.2316 -4.93781 -10.6142 11.544
441 147 2 0.0768041 -5.81791 9.06564 1.30092 -11.7606 6.39089
203 68 2 6.01164 -1.97645 8.55871 -1.28727 4.9104 -3.9642
575 192 2 6.91813 -5.48578 5.74748 -4.10692 -6.31534 -2.02662
202 68 1 4.99859 -2.08232 8.63184 11.4488 -31.1739 2.55473
574 192 1 6.69373 -6.46841 5.9353 20.7265 11.0685 10.4711
576 192 2 6.98221 -6.61664 6.92643 -7.40427 -4.99155 -5.56406
4 2 1 3.64756 -3.42611 4.34592 11.9877 10.8352 -14.3503
6 2 2 3.221 -3.14763 5.22276 -1.41793 -7.32201 8.41229
398 133 2 0.698356 -1.47664 4.55468 2.70483 2.00434 -1.79696
397 133 1 1.00771 -0.623913 4.07515 5.33757 3.04827 4.39142
399 133 2 1.88495 -0.285735 4.50437 -9.25414 -1.50723 -3.81584
256 86 1 1.72104 -1.88695 7.47444 -20.9732 6.04967 -30.6942
258 86 2 1.68831 -2.60255 8.19425 15.1825 6.3208 16.9032
287 96 2 3.57052 -3.28641 9.01954 2.44107 1.40958 4.62075
286 96 1 2.73216 -3.51762 9.5704 -12.4471 -4.34946 0.781422
364 122 1 5.39507 -0.382959 4.01733 -11.6636 4.39923 13.5074
257 86 2 2.17082 -0.97359 7.57845 5.93592 -9.64676 16.1957
366 122 2 5.43742 -1.37355 3.78771 -3.25747 -1.87308 -4.93223
204 68 2 4.5597 -1.19141 8.7666 -10.0445 26.9008 -2.11997
406 136 1 5.41971 -4.84413 9.3913 11.1322 4.45231 -17.6607
365 122 2 4.5524 -0.187401 4.59638 6.53065 -0.364359 -10.0324
296 99 2 3.01587 -6.53786 7.59956 -2.29046 -11.8134 3.14612
295 99 1 3.15668 -5.68452 7.07528 -8.42404 15.4007 15.1815
297 99 2 2.73475 -4.94175 7.64475 5.32326 -4.19632 -9.45251
572 191 2 3.83742 -6.04059 5.7301 4.05985 -1.81927 -6.55235
571 191 1 4.29723 -6.25905 4.81154 -6.4771 8.48662 -12.1091
573 191 2 5.29773 -6.45221 4.96082 1.201 0.729333 11.3714
186 62 2 6.37399 -6.09297 8.78437 5.37871 5.70904 1.19556
184 62 1 7.16991 -6.74261 8.63265 -16.9197 -9.63853 2.10943
407 136 2 5.4888 -3.92004 8.92836 -5.03969 -8.68449 10.4985
1 1 1 7.31751 -0.261031 6.93573 -24.7704 15.3231 7.6209
291 97 2 -3.40707 5.78834 5.92393 -5.47713 -1.68181 4.41663
289 97 1 -3.0031 4.8588 6.01658 -0.940833 4.05307 -24.4529
290 97 2 -2.76722 4.55913 5.04165 -2.16335 3.42318 27.9218
467 156 2 -1.25167 4.82289 7.87239 -2.78132 1.35135 -9.37303
466 156 1 -0.7363 5.58129 8.31336 -1.4623 13.4655 13.1325
468 156 2 -0.721645 6.4623 7.76075 -0.337015 -15.5054 -5.31214
17 6 2 -2.84166 3.14674 3.72458 -5.91171 -2.22281 -1.12049
597 199 2 -0.842072 7.14789 5.64025 2.04439 3.64753 8.21144
400 134 1 -5.30464 0.216124 4.04473 10.797 -21.1752 9.53497
402 134 2 -4.30765 0.0970606 3.83436 -5.71306 3.88183 -6.54577
360 120 2 -1.46357 1.40118 4.20461 6.99868 -6.96799 5.32104
451 151 1 -5.39081 6.89876 5.95333 7.05143 10.2778 0.395123
453 151 2 -6.33194 7.10277 5.63235 -7.26485 2.24574 -0.690098
431 144 2 -1.1279 1.43845 6.32165 8.40106 3.53198 -9.0026
430 144 1 -1.86008 1.28753 5.61523 -15.2808 2.15177 37.6965
16 6 1 -3.28541 3.94752 3.27298 -7.75058 4.47106 -2.89156
50 17 2 -4.71694 1.06371 5.74121 -9.55821 0.787746 -3.23046
51 17 2 -5.04504 2.21044 6.97542 13.9394 -5.70949 -13.2654
18 6 2 -4.30185 4.01168 3.45727 10.6924 -2.63756 5.96255
317 106 2 -6.18157 3.62487 5.49709 6.76352 2.51133 -0.771454
316 106 1 -5.92865 4.23441 4.70914 -7.22171 -21.358 -9.1476
49 17 1 -4.32385 1.62487 6.49457 -3.91486 -6.22481 9.63676
318 106 2 -6.30021 5.14133 4.94347 5.21144 13.3925 0.952137
242 81 2 -2.50984 6.97347 8.67649 0.843429 -7.60548 1.95315
417 139 2 -4.86975 4.35947 7.03013 -9.70092 -11.9095 -0.213354
415 139 1 -5.56232 3.7083 7.45895 9.12708 21.7087 16.1753
416 139 2 -5.1489 3.51123 8.38093 -0.441827 0.622984 -7.76804
112 38 1 -0.571905 1.66112 9.19178 10.9425 -0.230876 10.4606
113 38 2 -0.00230865 2.12066 8.46596 -15.8337 -1.67243 -5.59249
432 144 2 -2.71009 1.43495 6.22036 2.8288 -1.88309 -22.2195
263 88 2 -0.757169 3.22261 4.30494 3.5572 0.626508 5.18625
262 88 1 -0.564364 4.18374 4.59734 2.43147 1.35137 -22.7591
264 88 2 -0.498331 4.70314 3.70252 1.7992 -4.3444 11.4102
344 115 2 -7.06498 4.53671 8.29785 -6.30229 -14.7528 -2.77456
379 127 1 -6.97163 0.402546 9.59541 -6.15451 0.571711 -9.51483