ITEM: TIMESTEP
15500
ITEM: NUMBER OF ATOMS
648
ITEM: BOX BOUNDS pp pp pp
-7.3098164553579199e+00 7.3098164553579199e+00
-7.3098164553579199e+00 7.3098164553579199e+00
-1.6244036567462597e+01 1.6244036567462597e+01
ITEM: ATOMS id mol type x y z fx fy fz
142 48 1 -4.95754 -5.22081 -12.2814 6.08307 -3.52078 35.0504
143 48 2 -4.58949 -6.16518 -12.4086 6.29697 3.31081 -9.03482
424 142 1 -5.35727 -4.901 -14.9667 31.7653 -19.7538 -14.6969
426 142 2 -6.18281 -4.33859 -15.0251 -15.7322 19.3507 8.68834
31 11 1 -1.70362 -4.2858 -11.2709 -23.355 15.1289 31.4459
33 11 2 -2.35441 -3.80451 -11.9345 22.2849 -12.4456 1.43288
405 135 2 -0.78825 -4.70797 -14.1866 9.88046 -1.26827 4.45397
469 157 1 -4.56914 -1.6835 -14.9745 8.87871 7.3974 -28.8945
470 157 2 -3.8697 -2.13439 -14.3989 -1.59316 -4.59066 21.0815
425 142 2 -4.84246 -4.84525 -14.0709 -17.801 4.34921 1.25144
144 48 2 -4.84537 -4.9706 -11.2714 1.06844 3.41964 -24.1148
471 157 2 -5.47694 -1.50988 -14.5687 -7.97472 -4.47748 7.50263
32 11 2 -1.06876 -5.05189 -11.5577 -6.3334 6.11046 -26.1046
393 131 2 -0.88743 -2.7327 -15.3482 -6.44812 21.9023 -5.23778
391 131 1 -1.21807 -1.72751 -15.3661 -7.51076 -32.3152 -2.55275
361 121 1 -0.399553 -6.09832 -12.6637 -13.2601 0.680309 -3.89246
224 75 2 -0.241073 -0.569093 -15.1774 4.24794 -11.0683 3.33941
13 5 1 -2.82957 -2.16165 -12.8353 -0.895893 9.77035 -2.95225
363 121 2 -0.734001 -6.96123 -13.1038 12.5119 -5.29864 1.30413
15 5 2 -2.07967 -1.92132 -13.4764 9.65267 -6.71293 -7.72034
14 5 2 -3.06977 -1.22482 -12.4887 -2.77157 -3.94125 5.56278
270 90 2 -5.65401 -3.67997 -10.2086 8.12833 2.38896 5.5853
81 27 2 -2.82002 -0.675532 -9.81002 -11.7203 11.4339 -1.63859
503 168 2 -5.8218 -7.14064 -11.5479 -5.86421 -9.96513 1.16765
404 135 2 -1.28369 -5.27551 -15.5992 1.69549 -5.31154 -13.0302
403 135 1 -0.729081 -4.52806 -15.1885 -8.74069 8.55182 8.47034
322 108 1 -7.15627 -0.218855 -16.0602 -23.7608 15.8527 11.4903
174 58 2 -4.59312 -7.13621 -15.1566 2.40643 29.765 -12.1944
488 163 2 -3.75932 -0.0562605 -15.5053 0.230892 -1.95068 0.550617
281 94 2 7.18989 -1.86124 -15.9247 5.52846 7.29236 5.38672
635 212 2 6.4108 -3.17757 -10.2987 -8.45104 5.93997 -7.35472
145 49 1 6.77863 -6.11476 -11.8683 1.56605 -13.2116 30.1695
146 49 2 6.79722 -5.3352 -12.4877 1.49156 17.0884 -17.4579
191 64 2 1.31141 -1.99257 -11.9095 3.41375 -35.6389 -16.5065
634 212 1 6.84184 -3.9774 -9.82729 5.72489 8.76047 5.64616
147 49 2 6.96785 -5.72304 -10.9272 -8.16441 -2.8781 -10.8568
11 4 2 5.57275 -2.71523 -14.7372 -0.430169 -4.54117 -0.169413
12 4 2 4.32469 -3.84462 -14.5729 7.22622 -3.94163 -1.65176
10 4 1 4.59984 -2.86424 -14.425 -11.724 6.18785 0.818881
516 172 2 5.35352 -7.16276 -11.9657 -5.88022 3.5013 8.23028
170 57 2 3.0529 -3.54128 -13.2182 4.80311 6.80702 -10.2582
169 57 1 2.61623 -3.54335 -12.3077 5.29368 8.01944 -2.33659
171 57 2 2.60699 -4.5256 -12.0607 -9.91226 -16.3743 10.6965
83 28 2 2.64771 -0.304651 -12.5169 17.911 5.76922 5.12536
206 69 2 4.55656 -1.52342 -10.4489 12.3019 2.4489 -0.52156
205 69 1 4.91201 -2.2327 -11.0978 -26.1888 -21.501 8.51907
207 69 2 4.04412 -2.68602 -11.4432 14.3443 5.57066 -4.48452
84 28 2 3.65051 -1.2028 -13.3399 14.1485 -15.0008 -5.00386
190 64 1 1.33403 -1.08621 -11.5109 -6.19824 22.5171 37.2647
189 63 2 3.88521 -5.80468 -15.6834 -7.16556 6.60823 4.75162
187 63 1 4.12009 -5.5937 -14.7093 4.53355 -0.974401 -19.3065
261 87 2 3.90908 -4.36452 -10.0966 -4.3084 6.34091 0.678657
280 94 1 7.10912 -2.83415 -15.5872 -5.40706 -29.4351 -20.9096
362 121 2 0.581815 -6.18103 -12.3532 5.54682 -4.33329 -3.76203
82 28 1 3.61864 -0.299286 -12.8917 -20.518 7.06886 -5.6388
455 152 2 2.70023 -7.21071 -11.6965 18.4214 -5.43918 -11.1445
454 152 1 2.10677 -6.39045 -11.6886 -20.9787 2.49271 10.0853
188 63 2 4.82421 -6.28785 -14.4963 4.04964 -2.80077 10.0974
456 152 2 1.5989 -6.53423 -10.7975 1.51034 8.11943 0.482938
192 64 2 1.33911 -1.27234 -10.4807 4.96536 -1.72951 -17.6446
257 86 2 3.75212 -1.10543 -15.9143 1.8652 0.244357 -1.34793
225 75 2 -0.0918625 0.977832 -14.6865 11.7561 -14.4768 -3.4688
141 47 2 -5.92427 2.43337 -13.293 2.17375 3.10121 -3.13588
139 47 1 -4.89173 2.39954 -13.1558 8.77808 -7.68566 5.90424
621 207 2 -3.5537 1.14981 -12.7767 3.06475 3.44807 -3.65725
555 185 2 -1.13392 2.88786 -15.0451 1.10865 -4.62071 28.2929
553 185 1 -1.49863 2.30512 -14.2484 6.93192 18.5299 -39.8161
554 185 2 -2.42325 2.05168 -14.639 -0.956238 -14.4653 5.54813
140 47 2 -4.57179 3.34748 -13.312 1.21933 1.22863 -1.37578
619 207 1 -2.69824 0.666067 -12.4628 -3.79573 -9.9035 9.09048
620 207 2 -1.8573 1.04676 -12.9212 -7.53062 -1.95033 -4.30681
199 67 1 -4.09831 4.22934 -9.7914 1.21477 27.7082 -0.140524
200 67 2 -4.55299 5.02266 -10.2578 -3.32283 -11.5179 -4.2937
294 98 2 -1.07569 4.77662 -12.7989 6.20937 -3.36894 7.50845
423 141 2 -0.997475 5.22504 -15.305 -0.723531 -14.5787 5.28269
539 180 2 -2.59676 7.27622 -12.4384 -10.2735 -8.62005 -5.72205
292 98 1 -0.541459 5.57772 -13.1397 -25.8977 15.0784 -17.0095
477 159 2 -0.231727 3.7891 -10.7951 -4.00508 3.01189 -5.17623
80 27 2 -3.18671 0.491839 -10.9243 -0.222349 -2.32003 -0.881126
450 150 2 -2.85654 3.20567 -11.4429 -5.49164 1.30565 5.99258
448 150 1 -1.87554 3.28319 -11.6885 4.26147 6.88606 2.21292
79 27 1 -3.48848 0.0969234 -10.0156 19.7776 -27.5503 7.17149
502 168 1 -5.6085 6.47165 -11.4972 -23.9979 -0.885715 3.79611
504 168 2 -6.52099 5.99032 -11.6465 16.0015 5.60007 2.04594
449 150 2 -1.69871 2.68015 -12.5006 5.60983 4.99587 -2.8627
483 161 2 -4.67834 4.49946 -15.8896 -12.8148 6.78225 3.80106
482 161 2 -6.34368 3.974 -16.0329 42.562 -4.24629 -4.92128
481 161 1 -5.3208 3.78517 -16.2289 -29.7635 -2.50481 0.356847
173 58 2 -4.62485 6.35081 -14.1993 5.78346 -11.1805 14.4811
172 58 1 -4.89377 6.53665 -15.1526 -6.0386 -16.8731 -11.392
421 141 1 -0.721454 4.46753 -15.951 -4.69867 13.803 -3.55552
489 163 2 -4.45768 1.0905 -14.6174 -3.8735 9.98329 2.22455
487 163 1 -3.63064 0.907473 -15.1793 1.55387 -1.16221 -10.3944
540 180 2 -4.14891 6.60863 -12.1961 -3.73587 -5.101 4.78156
538 180 1 -3.47626 6.97087 -12.8856 19.4668 12.9481 3.94989
507 169 2 5.2064 0.330017 -12.2415 4.94535 -6.56492 10.2751
505 169 1 6.13604 0.394585 -11.7944 18.6605 29.7357 -14.2768
223 75 1 0.474556 0.14258 -14.9503 -2.27458 43.6195 8.14067
515 172 2 4.44335 6.72291 -13.0723 -4.15333 -5.93295 -14.9221
506 169 2 6.7206 1.1082 -12.2803 -18.6345 -18.7886 10.9277
65 22 2 7.12612 3.86129 -13.0883 -22.9319 0.989135 4.83283
64 22 1 7.26962 3.01435 -13.6564 7.05889 -22.6139 -15.312
66 22 2 6.41219 2.462 -13.9251 8.43939 14.3118 5.24891
324 108 2 6.72579 0.168087 -15.44 11.7893 -8.33259 -9.3365
514 172 1 4.49598 6.88551 -12.0741 15.4971 0.479279 5.96106
465 155 2 1.12533 0.477816 -11.7607 -1.83309 4.14728 7.27618
293 98 2 0.449515 5.5062 -12.9521 17.052 -7.84945 7.962
98 33 2 5.58666 5.59641 -12.0337 -7.08093 5.97678 -5.55611
97 33 1 6.32785 4.89885 -12.1336 16.3567 -1.11042 23.979
226 76 1 2.11578 5.08371 -12.3673 -11.0804 4.08682 -20.3579
228 76 2 1.47018 4.86178 -11.5799 6.75214 -2.34034 5.88691
227 76 2 3.09192 5.09768 -12.1069 4.56497 -0.128848 10.4194
463 155 1 1.14261 1.33808 -12.3307 -3.01688 -5.84525 -10.8972
464 155 2 1.22223 0.900112 -13.2489 -1.90701 13.1727 -4.47353
53 18 2 2.39551 4.61279 -14.3859 -4.36069 -5.43089 6.34188
52 18 1 2.83919 4.20633 -15.214 -4.96674 7.58067 -9.37974
59 20 2 4.51737 1.91269 -14.8077 -7.24253 5.06404 -5.07335
58 20 1 5.2562 1.43479 -14.3138 -0.428834 -27.144 10.7644
99 33 2 6.42401 4.54253 -11.158 -3.2734 1.58823 -5.79778
475 159 1 0.421102 4.47876 -10.4131 -4.5139 -6.56567 -17.4599
60 20 2 4.85485 0.569894 -13.8724 1.51686 22.1638 -9.74365
581 194 2 1.90944 1.15792 -15.9559 -6.98084 11.1307 9.24002
582 194 2 2.49433 2.82356 -16.2218 -9.33222 -6.5131 21.0718
54 18 2 3.74854 4.64775 -15.2846 11.5622 0.394009 2.65469
198 66 2 6.14098 5.44221 -14.5161 -4.09651 3.36906 -9.4746
123 41 2 7.17966 0.024079 -10.269 -7.19863 1.21259 -11.1675
196 66 1 5.28824 5.99722 -14.6407 -25.1685 14.8982 -18.8824
197 66 2 5.02461 6.28519 -15.6271 25.5498 -12.4739 18.3108
308 103 2 -1.99909 -5.089 -9.69134 7.40833 -4.19046 0.232999
120 40 2 -5.1893 -7.17083 -7.11425 -1.36448 1.68604 -1.40706
118 40 1 -4.4221 -6.56977 -6.79011 0.532504 1.94631 3.68555
119 40 2 -3.53706 -7.06774 -6.92751 -6.29776 -3.41671 -6.16009
309 103 2 -3.32674 -5.02164 -8.85151 -3.32849 -2.46838 5.71988
307 103 1 -2.3978 -5.44465 -8.81056 -2.77481 6.37451 -8.06979
268 90 1 -4.83111 -3.94404 -9.64955 -8.42254 -12.2087 -15.1186
236 79 2 -1.12092 -5.75545 -7.74565 -5.27542 8.31029 -0.693633
87 29 2 -1.76679 -5.81984 -4.8057 13.8945 -12.0397 8.193
8 3 2 -5.22348 -4.04646 -4.97466 -17.1434 18.005 -6.03229
85 29 1 -2.55347 -5.25819 -5.07189 -15.5805 6.99535 -4.7929
86 29 2 -2.90377 -5.60197 -5.97222 -4.5911 1.77566 2.05909
7 3 1 -4.97362 -4.236 -4.02053 31.0133 -31.2844 -11.2015
9 3 2 -4.18666 -4.89718 -4.24537 -11.8262 17.6962 19.4868
269 90 2 -5.21627 -4.08262 -8.70615 -3.98164 4.99032 8.33028
549 183 2 -1.02561 -2.28087 -7.93376 -14.256 -4.45157 -2.65426
37 13 1 -6.16204 -4.28345 -7.31414 -9.83681 -6.18957 19.3048
39 13 2 -5.50917 -4.88643 -6.81612 6.25929 -7.21483 -8.85225
38 13 2 -6.94663 -4.16921 -6.62496 3.01271 5.76758 -12.4083
179 60 2 -2.06618 -3.62959 -4.94948 -3.39818 -1.39222 -10.3333
21 7 2 -2.37714 -3.11447 -9.63846 -5.31427 7.19862 6.92109
19 7 1 -2.39595 -2.44241 -8.85384 8.97721 5.81903 -7.03303
20 7 2 -3.31913 -2.32014 -8.42334 -7.12405 -4.10726 -3.95339
133 45 1 -4.87568 -1.22308 -7.98865 9.16197 4.84044 -9.90737
135 45 2 -5.37469 -0.645888 -7.31176 -2.64118 -2.7205 9.54483
235 79 1 -0.339235 -5.82056 -7.06997 2.62112 -1.64682 5.90051
246 82 2 -6.6721 -0.316003 -4.87567 2.82666 0.629353 -7.327
194 65 2 -1.05894 -1.2116 -5.1683 10.2766 16.8829 -6.05086
244 82 1 -5.70867 -0.328524 -5.26856 -8.4299 6.55231 14.8527
237 79 2 -0.331144 -5.09696 -6.35233 -3.12835 2.20137 -6.27984
178 60 1 -1.44562 -2.81557 -5.06574 0.118505 -3.40387 17.6556
180 60 2 -0.804503 -2.94793 -4.26108 6.62305 -0.383302 -2.2679
548 183 2 -0.208369 -2.70828 -6.48788 -14.8603 3.24432 0.735236
547 183 1 -0.135616 -2.31464 -7.42719 34.4786 4.24507 -1.91051
134 45 2 -4.33686 -0.58669 -8.59539 -6.20682 -8.64391 1.38755
122 41 2 -6.64645 -1.09812 -9.32555 16.1704 -6.18998 3.29673
193 65 1 -0.684353 -0.247811 -4.99112 -8.16586 -6.11249 19.8157
364 122 1 -3.86358 -0.914581 -3.33593 -5.136 2.16357 -2.50244
366 122 2 -3.1385 -1.48065 -3.78021 -1.78644 2.73697 -4.30608
365 122 2 -4.57534 -0.653032 -4.06025 10.8532 -8.34504 7.93262
636 212 2 6.98108 -3.72962 -8.83712 4.87919 -3.56277 -7.46456
335 112 2 7.01503 -6.32432 -8.57554 0.450719 8.75845 1.96558
259 87 1 3.08297 -4.43923 -9.50521 17.2733 -25.5523 4.62002
260 87 2 2.74431 -3.53273 -9.15289 -4.63691 10.0812 -9.94359
387 129 2 2.11206 -5.64606 -9.35409 -13.4581 -11.0759 6.24575
94 32 1 6.44654 -3.77279 -5.63138 5.47668 -25.7548 6.41145
336 112 2 5.6392 -5.29173 -8.8623 13.4002 -5.28345 -0.00958471
334 112 1 6.00722 -6.20137 -8.56856 -17.9981 -17.263 4.95016
305 102 2 5.3542 -0.109257 -4.34415 13.2349 4.59002 -4.91932
300 100 2 4.26079 -5.98861 -4.02366 -6.86065 -22.251 -5.95223
599 200 2 4.75275 -1.61317 -7.81364 10.1938 8.11756 -2.77652
306 102 2 6.53407 -0.395606 -3.25254 12.2887 11.3054 -5.52308
304 102 1 6.37725 -0.12837 -4.24005 -23.9687 -12.7099 8.36274
229 77 1 2.00099 -2.12712 -9.0911 -3.06619 12.9538 10.054
230 77 2 2.71683 -1.4441 -8.82193 5.17327 1.23599 2.0602
231 77 2 1.29393 -2.23101 -8.33896 -5.61002 1.39935 -2.17916
385 129 1 1.36159 -6.34793 -9.08486 9.94322 32.3752 -0.151881
96 32 2 5.76248 -4.24387 -5.00265 0.252144 2.2076 -5.33007
299 100 2 3.68928 -4.61881 -3.50155 8.71001 0.694733 -5.1581
95 32 2 6.16008 -2.84124 -5.82537 -7.29511 21.3091 0.945365
298 100 1 4.41303 -4.99504 -4.14193 -3.05054 25.9281 11.0117
386 129 2 0.770448 -5.81002 -8.40785 6.74011 -23.4789 -8.09411
273 91 2 2.73515 -7.126 -8.10444 -4.59905 5.41364 -3.19341
600 200 2 5.3236 -0.33838 -8.88071 -1.65766 -20.1535 12.2924
598 200 1 4.5428 -0.959311 -8.56496 -10.0585 11.2546 -9.80938
121 41 1 7.20291 -0.459292 -9.37509 -13.6001 3.72022 13.3219
201 67 2 -3.55062 4.7155 -9.05898 -0.656155 -9.91791 1.34053
69 23 2 -4.29858 0.971734 -9.01261 -3.47945 29.9108 -2.1594
414 138 2 -0.629114 2.02296 -7.65413 0.18281 1.39986 -10.0436
165 55 2 -0.193252 7.11701 -6.95384 2.46458 -6.53927 1.1728
435 145 2 -6.5299 3.1192 -3.47189 -0.754297 -0.634172 6.42163
163 55 1 -0.400645 6.10683 -6.8198 -2.82126 9.03496 1.38524
67 23 1 -4.71873 1.83428 -8.57676 -4.81065 -4.61229 1.49295
68 23 2 -4.55728 2.65846 -9.1868 2.09731 -6.33062 7.23173
210 70 2 -3.2822 5.39326 -6.6845 -6.46455 -6.36188 -3.8055
285 95 2 -3.5862 2.50459 -4.57839 2.93937 -6.93225 -13.4389
283 95 1 -3.9962 1.73643 -5.13244 -3.0062 -0.461064 7.96533
284 95 2 -3.41692 1.32361 -5.87626 0.303169 13.3326 9.16847
208 70 1 -2.81947 5.55138 -7.60264 -20.0085 -2.05289 4.03736
209 70 2 -1.86984 5.84278 -7.32799 16.0137 0.44202 -2.65926
433 145 1 -6.84841 3.77355 -4.18586 6.70165 14.8694 -15.9276
643 215 1 -7.20556 2.95138 -7.79569 5.53195 2.01146 8.21082
129 43 2 -2.14214 3.86621 -7.93581 3.34191 -1.22657 0.87367
624 208 2 -5.80391 5.76301 -7.79564 -24.9741 -0.251997 -4.6617
103 35 1 -6.20285 6.7717 -4.21666 0.548144 8.90451 6.77259
104 35 2 -6.63723 5.87191 -4.36787 -4.78303 -12.5668 -2.92024
645 215 2 -6.28845 2.464 -7.77333 -6.6422 0.572335 -3.61391
127 43 1 -1.6836 3.13727 -8.49344 1.91785 -1.49896 14.4324
639 213 2 -0.262331 5.0148 -4.64723 6.48934 -12.6868 -4.75208
128 43 2 -1.89122 3.34485 -9.45696 -1.04303 -1.5919 -13.6984
622 208 1 -6.6277 6.38141 -7.67616 33.2255 7.55864 11.2751
105 35 2 -6.10685 7.23986 -5.11932 -0.0142269 -0.794239 2.03366
245 82 2 -5.28336 0.591638 -5.0413 2.12893 -2.56505 -12.4206
195 65 2 -0.139775 0.186975 -5.73012 -1.93196 -3.76427 -12.752
569 190 2 -3.70583 4.96408 -4.46443 2.31425 -9.17235 -0.149524
568 190 1 -4.20528 5.06338 -5.35923 12.1007 11.7268 -8.53509
570 190 2 -5.14322 4.71507 -5.22732 -10.5485 -10.4713 2.91084
476 159 2 0.680526 4.13992 -9.49802 5.97384 5.00626 19.1976
412 138 1 0.191271 1.42727 -7.45182 1.10267 1.02996 13.6858
164 55 2 0.280771 5.53761 -7.35754 0.824503 -1.16409 4.52167
623 208 2 7.1471 6.14254 -8.1886 -1.77417 -10.3863 -6.18473
644 215 2 6.96298 2.96144 -6.87922 7.6906 -5.06779 -1.93127
638 213 2 0.85419 3.83152 -5.14449 -11.27 6.55107 3.09333
637 213 1 0.111153 4.06702 -4.47266 6.85349 11.6601 -6.61357
341 114 2 5.12272 4.40983 -9.1786 8.18563 -5.07923 4.5414
271 91 1 3.08254 6.83067 -7.41249 2.73565 -15.282 2.74182
272 91 2 4.09514 6.74374 -7.42264 -0.120823 7.93904 -2.14366
480 160 2 4.23078 2.52988 -9.21067 -7.96872 -0.902839 16.0486
413 138 2 0.340168 0.699954 -8.13708 -5.3337 -1.78279 -7.30751
434 145 2 6.80927 4.08079 -4.04493 -4.39151 -5.60266 11.8028
342 114 2 6.7381 3.89227 -8.86141 -8.47834 -4.73268 2.38345
340 114 1 6.1096 4.46908 -9.46473 -1.72348 10.5219 -9.34709
648 216 2 2.23566 1.70166 -5.23207 -4.33415 -2.61593 5.90751
646 216 1 2.48384 1.89149 -6.19135 -1.61706 13.3593 -17.6392
647 216 2 1.62961 2.04511 -6.78844 11.6505 -12.8293 15.804
478 160 1 3.7308 3.04844 -8.47192 6.54734 5.92326 -13.05
90 30 2 2.2482 3.90389 -8.11327 4.79774 1.26803 0.01993
479 160 2 3.63141 2.55727 -7.57283 -0.440756 -7.35807 -1.808
89 30 2 2.02248 5.5299 -7.79869 -1.89702 -14.0725 3.0629
88 30 1 1.53419 4.60503 -7.87489 6.52682 12.6331 -0.07338
445 149 1 3.49799 7.09868 -3.74443 9.97663 -26.1253 9.84573
446 149 2 4.10714 6.33548 -4.06781 -7.62624 11.2668 0.913099
618 206 2 0.142473 0.446393 -3.36751 5.3805 -7.10236 -3.9922
546 182 2 -5.21062 -5.84196 -2.44019 -0.848979 10.1854 -6.53874
35 12 2 -7.15827 -0.269856 -0.748146 5.91944 6.17635 -17.672
558 186 2 -4.97742 -2.94992 -1.30826 -4.4694 -0.879241 12.7491
34 12 1 -7.02157 -0.34679 -1.80113 3.56141 -28.1127 -2.30701
115 39 1 -2.77439 -5.01434 -0.546263 -1.47153 0.0160744 3.64077
117 39 2 -3.37033 -5.61773 0.0134397 1.64356 -1.89723 -5.13164
614 205 2 -3.59288 -2.06962 1.84039 -5.18455 5.37823 -9.07479
615 205 2 -3.43828 -3.53333 1.01084 6.79545 7.60949 -11.2831
613 205 1 -3.57012 -3.09299 1.9195 -2.8079 -13.1978 20.9007
557 186 2 -5.59452 -3.60174 -2.60608 -10.5175 -5.7385 7.1041
556 186 1 -5.8507 -3.39458 -1.61344 13.2273 7.74589 -18.134
91 31 1 -6.29328 -6.33002 -0.0774982 1.27689 24.7885 -3.71933
93 31 2 -7.00311 -5.70866 -0.507107 -1.56928 -14.4027 2.23287
544 182 1 -4.6187 -6.65784 -2.31813 -2.0684 -19.4981 -0.657471
2 1 2 -4.19542 -0.839741 0.452896 -4.24445 -9.88819 0.439162
1 1 1 -4.32784 -0.411223 1.3742 10.9229 6.73625 -6.3843
50 17 2 -3.69625 -1.54033 -1.7279 4.72662 6.68104 -9.83174
116 39 2 -2.84006 -5.24562 -1.53891 -1.91931 -0.0305606 3.78928
36 12 2 -6.65778 -1.28616 -2.05504 -3.87072 19.1717 11.2597
92 31 2 -5.67581 -6.57094 -0.856984 1.13712 -8.62599 2.60647
351 117 2 -0.973254 -5.94557 0.286987 -11.9107 10.5563 -6.70397
51 17 2 -2.36228 -1.80328 -0.727267 1.60874 4.97144 6.84065
49 17 1 -3.38412 -1.90833 -0.824819 -18.5547 -7.35095 0.250372
609 203 2 -1.50409 -7.15528 2.25806 2.13329 1.64693 -8.92995
337 113 1 -5.54114 -5.45947 2.27767 5.94577 9.34007 7.91097
18 6 2 -0.0942658 -1.28394 0.200977 -2.99005 -5.57469 1.69665
16 6 1 -1.03085 -0.944231 0.00537171 -1.43193 12.6369 -12.576
150 50 2 -6.77025 -3.67248 1.02681 -9.74324 14.4223 4.41749
253 85 1 -0.238846 -3.19387 1.24962 9.9665 -19.1279 10.9751
255 85 2 -0.797217 -2.69179 1.95151 0.252567 0.393122 -1.19336
486 162 2 -7.07954 -0.169505 1.57898 6.2836 -9.60924 -2.92968
349 117 1 -0.875001 -6.91679 0.552603 30.3554 -9.27328 3.15095
339 113 2 -4.63384 -5.00467 2.14277 -4.09321 -0.637247 6.60018
461 154 2 -4.86646 -2.98779 3.23297 7.02951 6.02734 -3.20578
607 203 1 -2.25003 -7.19141 2.95283 3.64124 3.72184 21.8615
338 113 2 -5.79485 -5.9001 1.37694 -5.91832 -6.58982 -3.64546
44 15 2 5.73573 -4.89725 -2.01615 -2.6911 -7.20565 -7.04847
43 15 1 6.19067 -5.79659 -1.79394 10.0681 19.7848 28.0265
312 104 2 6.63752 -3.24998 -1.60704 -2.43786 -2.7337 -3.84741
311 104 2 5.45912 -2.34046 -0.949893 -2.63799 -13.0028 -7.31928
310 104 1 5.63471 -3.03921 -1.68873 11.0992 19.1088 13.2263
593 198 2 2.813 -2.00522 -2.43883 -7.51826 3.34686 1.81573
592 198 1 3.44776 -1.27655 -2.76818 13.0768 -13.0178 4.23344
594 198 2 4.33426 -1.79906 -2.79323 -3.87167 5.19275 -1.13908
148 50 1 7.04923 -3.24504 1.51521 6.30714 -38.9373 1.76736
279 93 2 4.36942 -4.87138 0.408373 4.36065 1.14161 -18.5329
381 127 2 3.8365 -3.62445 2.75176 5.98599 8.44239 -5.82617
277 93 1 3.94251 -4.50281 1.23567 -5.66824 -9.15341 18.8077
301 101 1 0.267494 -3.62397 -3.14547 7.0261 -3.3433 3.96979
603 201 2 2.04182 -3.94182 -1.3557 6.54867 11.1955 0.525424
303 101 2 1.05643 -4.308 -3.05982 -13.4642 15.9387 0.303633
302 101 2 0.334168 -2.97754 -2.34581 1.98389 -6.98085 -5.0295
601 201 1 2.56998 -4.52022 -2.02943 8.91899 -9.16889 -10.2435
602 201 2 2.6173 -5.45996 -1.6097 -3.43905 -8.7553 -4.53313
606 202 2 0.75824 -2.78473 -0.0152072 9.00864 -3.4788 0.420479
149 50 2 6.48281 -4.03996 1.87235 1.69364 24.7848 -5.54249
604 202 1 1.5389 -2.58873 -0.679086 -5.09192 21.0712 11.3812
254 85 2 0.0839561 -4.07551 1.65717 -1.97543 8.92786 -3.35391
350 117 2 0.153304 -7.05846 0.675639 -14.9932 -1.84059 3.91054
617 206 2 1.6912 -0.12139 -2.82493 -19.0143 18.8458 -0.257841
45 15 2 6.09369 -6.52219 -2.47022 -8.57679 -8.95207 -18.6917
347 116 2 6.92719 -5.66503 2.82814 8.66804 -1.98034 0.590071
605 202 2 2.22182 -1.93542 -0.214037 -11.4533 -12.8391 -1.76886
348 116 2 5.8721 -6.87406 2.39184 1.37612 15.7425 10.5883
330 110 2 3.67576 -1.49382 1.56981 3.78201 -2.60185 6.60583
328 110 1 3.1222 -0.992441 0.879716 -10.2422 -2.37946 -7.60418
329 110 2 3.62503 -0.138705 0.6295 1.56776 1.93593 -3.59991
409 137 1 1.71046 -7.03517 1.62399 0.080823 29.8966 7.29311
315 105 2 2.33202 -6.96456 -0.0778344 -4.77688 -1.13129 1.69694
313 105 1 2.12004 -6.97963 -1.08565 24.4856 12.5964 9.77915
278 93 2 4.1254 -5.19444 1.96817 2.4166 1.67357 -1.25074
346 116 1 5.94599 -5.92239 2.8116 -1.05945 -19.9022 -14.6331
411 137 2 1.61944 -6.58062 2.54047 4.20225 2.36822 1.08866
535 179 1 4.90294 -0.391594 3.20176 -0.314198 14.8766 -9.14757
296 99 2 1.60663 -0.311363 1.88335 4.91973 -5.08623 -20.2031
545 182 2 -4.97061 7.24702 -2.99339 2.62406 14.6342 4.16458
567 189 2 -3.79271 6.38782 -1.30045 -2.84794 -2.29582 3.03155
565 189 1 -4.04442 5.51485 -0.819502 8.07987 1.50113 -0.230063
564 188 2 -0.753433 6.79109 -1.20356 -4.46458 -0.248528 7.48139
562 188 1 -0.292426 6.34447 -1.99019 6.09295 9.792 -4.54376
563 188 2 -0.337552 5.33568 -1.94875 -1.07253 -13.4312 3.71153
566 189 2 -3.79012 5.60132 0.197371 -10.379 3.41922 -14.1904
3 1 2 -3.78661 0.456794 1.26926 2.20256 6.12095 6.64094
402 134 2 -5.11286 0.956362 2.50091 -2.23159 -10.5928 2.63781
17 6 2 -0.917673 0.0676724 -0.146254 5.76108 0.581274 3.99855
331 111 1 -4.05737 5.89574 1.76113 2.70616 0.767685 -0.954066
523 175 1 -6.82273 5.78356 -1.29352 28.7827 -10.7924 -2.9986
525 175 2 -6.6349 5.98473 -2.27812 -8.43898 2.8225 1.08193
401 134 2 -6.06259 2.24558 2.458 2.74355 -4.87186 7.40828
524 175 2 -5.87091 5.52923 -0.945591 -17.5432 3.57932 0.813179
560 187 2 -4.38943 2.43119 -2.20156 10.1903 2.68083 0.252907
101 34 2 -3.02671 0.596018 -2.50053 4.8964 -2.0515 19.7564
559 187 1 -5.34145 2.53202 -1.86563 -4.36241 5.04047 0.458256
561 187 2 -5.74942 1.61091 -1.92729 -11.7467 -11.7786 4.2569
100 34 1 -2.65585 1.32361 -1.85699 -3.01666 20.3454 -47.336
102 34 2 -2.53166 1.16503 -0.883201 -6.79397 -17.9129 24.1572
369 123 2 -2.82544 2.89703 1.23391 0.823539 -6.4965 2.51296
367 123 1 -2.79963 1.8805 1.11299 -13.1502 3.9363 -0.362876
501 167 2 -3.59395 4.45134 -2.35495 2.73485 -2.20061 13.3967
499 167 1 -3.09028 4.00434 -3.12218 -10.8931 10.5349 -18.6688
332 111 2 -3.83886 5.26592 2.52739 1.39016 -0.069566 3.87855
333 111 2 -3.59011 6.79359 2.00782 -2.08727 -11.2564 4.35223
249 83 2 -7.28839 5.16687 1.36784 7.80288 -9.67415 8.70261
400 134 1 -5.75075 1.48813 3.09837 -3.04148 10.9716 -9.82738
500 167 2 -2.39106 3.33663 -2.83056 9.9172 -8.5512 11.5349
513 171 2 -0.830287 4.9887 2.29293 -2.06208 -5.80419 -2.35378
368 123 2 -1.82205 1.59785 1.15711 10.7454 -0.798638 0.540345
420 140 2 -0.690666 2.15308 -0.534903 17.3472 17.8604 -1.86223
418 140 1 -0.25908 1.5928 0.203056 -21.4162 -25.7113 16.3281
511 171 1 -1.29734 4.17502 2.69939 3.74465 3.21367 5.42652
373 125 1 -5.62998 3.44252 1.10036 21.4892 27.5976 -5.1256
375 125 2 -4.98008 4.24676 1.09239 -14.5741 -6.26738 13.3287
374 125 2 -5.50192 3.14525 0.139287 -10.5275 -16.6501 -11.1434
447 149 2 2.93586 6.70746 -2.97353 2.94175 15.0223 -8.22008
484 162 1 7.28358 0.200256 0.665287 -11.9906 3.67135 22.5877
62 21 2 0.181801 3.70924 -2.90574 -0.419922 -1.84608 -10.4654
61 21 1 0.106636 3.28629 -1.96992 -9.1305 3.42033 8.86626
63 21 2 0.257308 2.28315 -2.10784 8.83111 -4.24805 -1.36703
109 37 1 4.4014 0.878109 -0.827289 -49.1064 7.61473 -6.70722
616 206 1 0.950459 0.613695 -2.75314 12.8792 -10.6945 0.232932
153 51 2 2.50221 2.0454 0.221571 5.44881 -12.3328 -24.8647
111 37 2 5.2629 0.964587 -0.327369 29.0674 -7.5776 -1.04633
590 197 2 1.66203 4.17876 1.35028 -2.68435 16.4089 -6.99974
589 197 1 1.49235 5.12315 1.76786 -4.0559 -53.2315 16.6703
110 37 2 4.20337 0.182057 -1.5614 14.9336 1.41052 6.82248
591 197 2 1.57942 4.83976 2.76864 7.64497 7.93316 -6.85374
248 83 2 6.60118 6.27777 0.477024 -4.07063 -10.0315 18.5241
247 83 1 6.48714 5.71741 1.34885 0.0552155 20.8385 -28.8023
24 8 2 4.97857 4.25914 -1.9447 -5.72679 -4.74457 -4.40159
22 8 1 5.63526 4.81926 -2.4742 5.69417 5.12287 17.7169
23 8 2 6.30492 5.17724 -1.74677 -3.88654 -3.12211 -22.4043
151 51 1 2.1016 2.55095 0.982108 2.49072 18.4912 16.186
152 51 2 2.86865 2.59282 1.66684 -2.03582 -2.31236 11.4585
485 162 2 6.75625 1.04647 0.950033 3.49541 6.04084 -10.5208
419 140 2 0.509941 2.00239 0.764593 4.15908 10.8211 -15.687
314 105 2 1.40992 6.95451 -1.24578 -20.7336 -15.0776 -10.6463
552 184 2 6.02227 3.48 0.796943 -1.44801 -4.33171 7.07842
550 184 1 5.93693 2.49084 1.04448 -10.639 -3.88197 -2.38739
551 184 2 5.07851 2.31577 1.62572 17.053 9.98081 0.395209
410 137 2 1.75748 6.56168 1.83658 -2.73651 -5.01791 -13.527
297 99 2 0.27935 0.561388 2.60273 -7.21377 1.31788 -7.14221
215 72 2 3.99757 1.28851 3.24119 4.78461 20.2112 -16.0568
214 72 1 4.07145 2.28426 2.90147 -12.9 -11.8794 37.5498
295 99 1 1.21837 0.179433 2.67035 1.86669 1.22688 38.5129
319 107 1 -1.49303 -2.37367 3.73442 -12.6254 4.24153 2.35647
321 107 2 -2.35024 -2.76786 3.33057 4.5148 -5.5422 -5.274
460 154 1 -5.63152 -2.68034 3.83433 1.76298 -11.7841 -3.63499
276 92 2 -5.12872 -2.50852 7.03559 3.23509 -9.98286 -2.77446
275 92 2 -5.34751 -3.00291 5.44156 -8.4113 4.04707 4.59335
608 203 2 -1.86945 -7.2435 3.91809 -3.7696 1.10383 -12.6185
442 148 1 -2.50518 -0.307358 5.58803 -30.4601 7.41483 26.3116
443 148 2 -2.76054 -0.656546 6.53382 14.3929 -7.26858 -14.7383
126 42 2 -2.91097 -2.90159 8.25001 16.59 -27.1453 8.20192
125 42 2 -4.06147 -1.98629 9.05804 6.21044 -14.0363 -7.85441
124 42 1 -3.46736 -2.08184 8.21202 -28.2187 44.3729 -7.11503
458 153 2 -5.13991 -6.63383 6.84372 -10.5424 -4.5675 -11.6672
167 56 2 -1.41976 -6.22872 5.72486 0.306435 -7.06968 6.08206
320 107 2 -1.86752 -1.61818 4.32828 9.37556 -0.0861512 3.49959
212 71 2 -0.829676 -3.54469 8.62567 3.68682 6.34744 -3.10861
211 71 1 -0.244522 -2.84171 8.14851 -1.79525 3.09025 1.74625
132 44 2 -2.82454 -6.38432 7.63907 -4.76347 7.08672 1.75434
130 44 1 -2.94039 -5.51291 7.10955 -5.8593 -5.18053 -15.214
274 92 1 -5.56486 -3.22346 6.43651 -3.88419 9.47854 5.22467
457 153 1 -5.64786 -6.87943 7.69427 10.3818 7.37337 11.6642
166 56 1 -1.08912 -7.19175 5.56846 -4.94959 11.144 -20.1603
462 154 2 -6.47078 -2.96306 3.32856 -6.42896 8.83833 -0.379466
427 143 1 -5.16644 -5.62268 5.30171 -6.78235 -2.88329 -13.7252
428 143 2 -5.62725 -4.85892 5.81471 4.9874 6.07116 6.10416
429 143 2 -5.49727 -5.53334 4.32764 10.1514 -6.98391 5.77418
579 193 2 -0.61011 -7.12036 8.18888 -7.99364 3.33703 -6.10914
131 44 2 -3.81542 -5.51373 6.54802 14.9763 3.07176 6.00802
588 196 2 -5.2779 -5.77709 8.92595 -3.63577 -9.57803 -3.63352
399 133 2 0.511419 -2.91091 4.11152 1.58231 2.94269 -4.3459
379 127 1 4.03178 -2.85727 3.40963 -10.3183 -5.27167 8.16239
380 127 2 3.16031 -2.66906 3.93751 4.10787 1.79256 -9.53968
536 179 2 4.64192 -1.38786 3.26164 1.18224 -7.26874 6.17455
213 71 2 0.109246 -3.15041 7.23656 2.45755 -4.65714 8.05016
158 53 2 0.623959 -6.19666 4.70229 8.57236 -7.20475 0.323568
352 118 1 0.918543 -0.781787 9.67662 0.312182 -10.6277 -15.6
353 118 2 0.620255 -1.3926 8.88866 -0.759995 2.01193 10.0013
360 120 2 1.92426 -3.88812 8.94894 -4.64857 1.90969 -1.94618
157 53 1 1.54845 -6.04001 4.27184 -18.3712 24.2803 -3.49877
238 80 1 5.35074 -6.22406 5.65592 3.92458 -1.30982 7.85633
159 53 2 1.84247 -5.09722 4.56363 1.70922 -9.22141 0.458241
398 133 2 1.08941 -1.44886 3.82223 17.67 -13.0808 -2.99081
397 133 1 1.40931 -2.42865 3.98744 -22.7858 10.2122 12.3619
440 147 2 1.83986 -3.13831 5.63211 17.4301 -2.98648 14.7195
439 147 1 1.8944 -3.69868 6.50469 -41.0154 5.19471 -18.6822
441 147 2 2.79381 -3.95094 6.90992 21.0766 -0.907397 -4.4686
30 10 2 4.81906 -3.8784 7.72767 10.2449 7.88864 -1.05018
28 10 1 4.20266 -4.66938 7.52918 -6.65349 -10.3977 8.72261
29 10 2 4.8013 -5.36804 7.06305 1.93524 2.70743 -12.1113
70 24 1 6.32181 -3.00882 7.77409 8.65403 20.453 -4.42564
71 24 2 6.26995 -1.98764 7.70434 -10.9737 -3.84969 3.12307
359 120 2 3.30018 -4.64472 9.39008 24.0658 -7.33259 -12.712
358 120 1 2.40633 -4.35625 9.70787 -15.4755 14.9743 2.90011
357 119 2 6.29469 -3.81207 9.23413 -4.67244 -3.47204 3.40058
72 24 2 7.14583 -3.2009 7.20029 4.86301 -10.5101 -1.40443
537 179 2 5.33987 -0.0973074 4.06531 1.70969 -4.384 9.91376
239 80 2 5.98286 -5.90226 4.92278 -7.36328 -3.35995 -4.4574
240 80 2 4.6465 -6.88237 5.28758 3.21341 0.0998902 -1.84187
5 2 2 2.64713 -7.0476 4.57776 9.25351 -24.4366 9.62552
451 151 1 4.50505 -0.0559841 6.40353 -1.32648 18.3065 12.8628
496 166 1 2.8867 -7.18669 7.35237 -9.34463 -20.9373 16.5436
497 166 2 1.89301 -7.20159 7.70052 16.8966 9.78136 -0.513117
498 166 2 3.49354 -6.3819 7.53054 -16.7369 11.4033 7.48991
287 96 2 -1.74282 2.09049 4.01507 -10.6896 13.8481 -3.21828
444 148 2 -3.22518 0.438776 5.48663 10.8653 -8.49265 -6.69186
459 153 2 -6.30359 6.97571 7.60705 -4.15739 -8.27966 -3.93708
288 96 2 -1.48199 0.625312 4.69791 -3.91265 -9.65006 5.97428
168 56 2 -1.67965 6.82752 6.15817 -0.699467 -2.45183 10.5495
250 84 1 -4.14602 6.12818 9.72906 -12.1304 -9.4858 13.555
576 192 2 -3.3341 5.86936 8.06413 6.5096 13.031 -0.768856
286 96 1 -1.11805 1.3121 4.03377 18.8407 -1.09042 -10.2517
370 124 1 -2.34091 3.09219 6.69904 26.3466 13.0355 33.7818
372 124 2 -3.05053 2.46225 6.34582 -13.112 -9.71132 -7.12742
371 124 2 -2.20812 2.85414 7.71459 -3.3632 1.68767 -15.7356
575 192 2 -2.20003 5.01244 7.33245 4.39128 -4.91442 -5.53391
574 192 1 -2.51946 5.97231 7.43161 -13.7453 -4.75604 3.32556
316 106 1 -2.2381 2.51817 9.47458 6.20336 -6.8319 -15.7409
251 84 2 -5.18722 6.16249 9.72865 13.4974 -2.82392 -5.62182
512 171 2 -0.701467 3.81008 3.44915 -3.15885 0.326192 -4.21427
596 199 2 -0.731575 3.93492 6.05404 10.9163 16.7243 -14.7669
597 199 2 -0.376855 5.47426 5.32776 3.65203 -12.0947 10.8187
595 199 1 -0.0330149 4.51361 5.52169 -22.5137 -5.35932 7.85303
233 78 2 -4.4189 2.8488 5.29186 -10.5309 14.7954 -7.9604
345 115 2 -4.76685 0.680194 9.39547 13.5106 -1.26927 -4.66207
573 191 2 -7.22579 1.76838 5.16255 -4.84006 0.699791 8.52128
289 97 1 -7.10391 5.46438 9.128 0.961907 15.8342 2.54892
290 97 2 -7.11032 4.43849 8.97938 -2.553 6.52758 -6.11338
326 109 2 -7.22309 2.59433 7.56673 2.24752 -12.6122 -6.48384
234 78 2 -4.90795 1.32269 4.76611 -10.5141 7.20732 -13.0769