ITEM: TIMESTEP
18000
ITEM: NUMBER OF ATOMS
648
ITEM: BOX BOUNDS pp pp pp
-7.2692656817840389e+00 7.2692656817840389e+00
-7.2692656817840389e+00 7.2692656817840389e+00
-1.6153923737298371e+01 1.6153923737298371e+01
ITEM: ATOMS id mol type x y z fx fy fz
31 11 1 -1.98657 -0.715592 -10.9957 -0.951508 32.7139 -6.66432
308 103 2 -1.32489 -4.11022 -10.2052 13.6188 6.64556 -4.93147
309 103 2 -0.610418 -4.76729 -11.5528 -1.73223 -6.83403 -9.55605
307 103 1 -0.493393 -4.07103 -10.8295 -9.95552 3.2703 16.0729
490 164 1 -7.08285 -2.77264 -14.5333 -7.86729 -4.50112 -11.4405
491 164 2 -6.43458 -3.42141 -15.0074 2.75679 7.71483 5.65868
139 47 1 -5.68566 -1.91428 -12.2918 6.35432 1.19575 -18.6883
140 47 2 -5.05143 -2.71242 -12.3005 -1.25255 3.37946 12.2272
119 40 2 -0.140971 -6.30779 -12.8305 -3.39396 1.31745 -12.3807
424 142 1 -4.72104 -3.89635 -15.5805 -18.8001 30.7332 -30.4186
425 142 2 -3.89713 -4.50173 -15.4418 -0.591083 -14.1955 11.4764
141 47 2 -6.0048 -1.90716 -13.2749 -10.0239 -0.768041 6.30575
555 185 2 -1.04826 -4.39079 -13.7072 -7.79158 -2.09216 6.40637
553 185 1 -1.14993 -3.38727 -13.9579 8.85132 21.3132 -15.6903
118 40 1 -0.992634 -5.87684 -13.2355 8.53533 4.94706 16.8607
120 40 2 -1.47885 -6.44054 -13.9397 2.62599 -3.75206 4.36148
207 69 2 -5.36245 -5.33341 -13.7594 -3.46907 -10.3633 29.477
554 185 2 -1.59089 -2.80569 -13.2493 -1.95224 -8.33232 6.61577
323 108 2 -5.86246 -0.26104 -11.799 -7.10934 2.68851 15.4652
205 69 1 -5.60103 -5.78607 -12.843 0.78155 8.063 -39.9209
206 69 2 -5.2659 -5.27482 -12.0384 -1.27811 11.127 6.1815
514 172 1 -0.715757 -1.66206 -16.1097 11.6791 0.682291 -8.34488
515 172 2 -0.995738 -2.49403 -15.5837 -4.9848 -0.853704 7.52377
540 180 2 -2.83711 -6.03775 -15.9799 2.76182 9.32483 -5.92952
539 180 2 -3.64605 -6.82588 -14.8237 1.36063 1.94546 5.06603
538 180 1 -3.29643 -5.88867 -15.0746 13.7727 -33.6433 -0.604848
142 48 1 -6.31303 -4.08074 -10.3929 -2.92033 -16.5137 5.31742
32 11 2 -2.01353 -1.62931 -10.575 -0.736856 -10.6623 12.9532
143 48 2 -6.61129 -3.13902 -10.5828 2.60171 13.1013 -5.59077
144 48 2 -7.16682 -4.65376 -10.231 3.92693 -0.892103 -1.95608
180 60 2 -4.30188 -6.23804 -10.1611 1.02481 1.28173 -3.35824
362 121 2 1.41392 -3.59993 -10.4919 -13.0755 -4.32054 -0.331156
236 79 2 3.28376 -6.69188 -10.2119 -0.571706 -3.22126 12.2429
492 164 2 6.52243 -2.88009 -14.953 7.17005 1.51747 7.29972
171 57 2 4.64922 -3.73253 -15.0263 -6.06131 9.66599 4.90113
361 121 1 2.32134 -3.27089 -10.1736 3.33853 0.622301 -2.79442
363 121 2 2.47086 -2.33963 -10.5698 -1.89719 9.51921 5.45693
145 49 1 4.06207 -5.41221 -12.9348 -11.8215 -11.741 -12.2493
146 49 2 4.39567 -6.36149 -13.163 9.52764 8.19842 3.56933
147 49 2 4.69188 -4.84706 -12.3934 14.162 0.23956 6.6463
170 57 2 3.47233 -2.57062 -15.0941 -18.7272 -2.57334 5.76903
169 57 1 4.44669 -2.72485 -14.8999 22.359 -7.7815 -10.85
449 150 2 2.55368 -5.99369 -12.8825 -6.19956 2.80006 3.84337
12 4 2 6.67623 -0.444945 -12.1388 -0.997833 5.57646 5.97842
10 4 1 5.6678 -0.625041 -12.1901 1.29277 1.98255 -9.71185
11 4 2 5.55088 -1.43311 -12.7866 -2.08053 -9.50811 -5.41506
450 150 2 1.98986 -7.20534 -11.9259 2.54277 -12.4291 3.68915
448 150 1 1.6883 -6.43871 -12.509 -9.02394 0.153478 -4.68043
464 155 2 4.95729 -0.184064 -10.7568 6.35631 -4.40119 17.5688
13 5 1 2.15514 -0.549751 -10.6768 0.0980698 -6.76173 -5.65149
192 64 2 2.14977 -0.849036 -14.6858 -9.07058 -10.5113 -2.55246
190 64 1 2.27367 -0.132391 -15.405 6.09952 15.7364 10.0284
14 5 2 1.14285 -0.451309 -10.5652 3.57627 5.75461 -1.76792
634 212 1 6.08706 -5.49379 -9.69476 -30.9527 28.5396 6.59884
383 128 2 4.78422 -1.18197 -16.0913 5.48633 21.6817 -2.7195
582 194 2 2.0106 -2.87115 -13.1321 -10.6721 -1.44234 -5.92594
581 194 2 0.513259 -2.65726 -13.9676 10.235 -4.16538 2.87478
580 194 1 1.52823 -2.4391 -13.9279 5.83301 5.74385 0.466503
640 214 1 0.629364 -6.87593 -16.0849 -4.71378 0.370642 14.7136
642 214 2 1.36162 -6.41048 -15.5366 -1.72505 0.141154 -7.92378
33 11 2 -1.96348 0.0602921 -10.3001 1.37523 -14.8664 -0.334515
543 181 2 -3.58122 2.17621 -11.462 -1.78342 -4.52644 8.66814
541 181 1 -2.94377 1.7692 -12.1533 14.8661 -16.4299 -7.34973
542 181 2 -2.62933 0.828729 -11.8168 -8.71264 15.9182 -3.38788
98 33 2 -5.39985 7.19148 -12.4807 2.03382 10.8198 6.39486
322 108 1 -6.20485 0.673443 -11.4856 13.3721 -20.3726 -7.5011
489 163 2 -4.39292 0.420322 -14.9583 -7.44045 1.03582 10.1554
487 163 1 -4.06283 0.534534 -15.9073 12.5269 -5.86807 -14.9089
64 22 1 -3.66756 5.83129 -14.8186 -5.12323 -4.88421 -3.5596
66 22 2 -3.18654 4.96248 -14.5328 5.6531 5.05647 9.1819
65 22 2 -3.93964 5.64204 -15.7783 -5.16241 5.94845 -4.09763
324 108 2 -5.89004 1.23955 -12.2876 -7.7088 5.10873 -2.5273
59 20 2 -5.6135 2.25404 -14.6368 0.400707 -2.13154 -2.92667
58 20 1 -5.9556 1.55623 -13.9659 -9.47936 9.60033 -0.954032
60 20 2 -6.96249 1.79188 -13.8285 12.1267 2.10425 -7.05762
482 161 2 -2.59891 3.05446 -13.2115 -8.09746 11.3655 11.1485
481 161 1 -2.19457 3.8328 -13.7643 12.749 -32.4064 -5.17471
584 195 2 -1.176 5.25918 -14.0236 -4.73484 -0.75353 -0.0510594
583 195 1 -0.506829 6.02201 -14.191 -9.31336 -1.46137 -24.2531
294 98 2 -1.02281 1.59729 -13.0772 -0.0296512 -0.350946 11.5221
292 98 1 -0.00386216 1.54811 -13.1134 -6.69985 4.94368 -12.5761
97 33 1 -4.95963 6.35127 -12.0685 4.05245 -27.0493 -11.2212
99 33 2 -4.6631 5.80739 -12.8907 3.25789 8.17072 5.13717
423 141 2 -7.00419 6.54449 -16.016 4.42879 1.99424 17.1861
226 76 1 -7.1493 4.4059 -11.4838 -15.7904 -6.21961 10.0593
227 76 2 -6.36299 4.5788 -12.0898 10.1516 8.8765 -4.41481
201 67 2 -1.61328 4.8249 -9.78759 -13.3561 -5.3439 26.171
469 157 1 -4.6911 2.3412 -9.98358 -10.7422 16.3007 18.78
471 157 2 -5.2847 1.56995 -10.3267 -2.09943 -1.55233 -6.02271
195 65 2 -6.9319 4.14663 -9.81884 0.947667 -7.33126 0.846918
624 208 2 -3.74959 5.48009 -10.885 -6.3354 -5.57389 1.54484
622 208 1 -3.30647 4.90803 -10.1517 -4.53622 -9.03343 0.822864
623 208 2 -3.65268 3.92966 -10.0753 -1.35993 14.9522 -7.10602
483 161 2 -1.59696 3.25285 -14.3726 -5.7198 21.1092 -4.98369
503 168 2 5.5409 5.85694 -12.0408 -3.86381 8.61866 -5.94553
502 168 1 5.48891 6.20476 -13.0095 8.83835 -3.21796 2.0357
504 168 2 6.42383 6.14581 -13.4638 -18.3144 1.76056 -1.89295
209 70 2 2.45394 4.80543 -11.88 3.76478 10.7271 -15.2074
293 98 2 0.200134 0.917174 -13.8882 8.45434 -1.16179 3.22597
52 18 1 6.18932 2.91451 -13.9529 -18.4083 -11.9755 14.4628
585 195 2 0.0902859 6.10617 -13.4025 17.0158 0.590718 21.0734
208 70 1 2.49859 5.42933 -11.0597 -4.38979 -7.4426 4.47716
210 70 2 2.10756 4.83228 -10.3459 -3.55957 2.61448 11.0974
15 5 2 2.55812 0.0889356 -11.3602 -6.67687 0.907688 0.897798
456 152 2 4.64269 0.531701 -13.3378 -3.74316 -2.41797 1.15841
454 152 1 4.01416 1.30033 -13.5994 1.85644 13.1644 5.017
455 152 2 3.36324 1.05497 -14.35 -0.350124 -11.3443 -5.02372
83 28 2 0.6642 5.48738 -16.1149 2.28067 -8.30418 -5.03728
422 141 2 6.46107 5.33461 -15.9532 18.4553 11.375 27.588
421 141 1 7.08707 5.9157 -15.34 -19.3687 -13.922 -40.0351
228 76 2 7.01364 5.25256 -11.0466 1.7155 3.31028 -3.74696
53 18 2 6.18822 3.58771 -13.1836 5.79411 0.67871 -3.88676
54 18 2 5.34424 2.31248 -13.8215 11.7671 8.66146 -6.95456
385 129 1 5.3246 5.99074 -10.1062 9.94199 -8.29495 -22.4093
476 159 2 2.96933 3.41635 -13.5358 8.9422 3.15477 -2.72982
477 159 2 1.40112 3.37914 -13.2969 -5.18052 4.7711 -1.67459
475 159 1 2.18781 4.03045 -13.3191 -4.5995 -18.9366 5.28243
258 86 2 2.45154 5.7265 -15.052 -4.95307 -11.1069 0.504975
257 86 2 3.96691 6.10485 -14.4259 -0.675817 1.07736 2.19039
256 86 1 3.19566 6.41342 -15.0265 12.1444 10.754 -3.15962
619 207 1 0.336617 2.42258 -10.1919 26.4777 -0.43479 -18.8871
621 207 2 0.0814136 2.54457 -11.1857 -3.84987 -5.32782 15.8846
463 155 1 4.92036 0.0802066 -9.7415 -5.31022 -5.15839 4.87139
386 129 2 4.46315 5.44065 -10.0687 0.205475 6.50002 6.6948
128 43 2 2.26552 2.42188 -9.9276 1.37006 -12.1214 2.58268
641 214 2 0.0901438 7.1391 -15.371 -0.996149 1.14238 -7.69427
549 183 2 -2.94846 -3.3211 -7.91076 8.50003 2.61646 -10.7977
548 183 2 -3.09631 -4.47589 -9.02945 -4.835 -8.30776 -9.3245
547 183 1 -2.69234 -3.54134 -8.88308 0.90403 6.81794 16.4738
133 45 1 -5.93651 -4.88965 -7.47924 -5.49811 0.598385 -0.191771
134 45 2 -6.16946 -4.92674 -8.48524 6.37153 -0.458357 10.0926
135 45 2 -5.99785 -5.79295 -6.99988 0.32123 7.40287 -8.36307
122 41 2 -5.63219 -2.69718 -7.24639 0.779909 -26.1692 -13.0844
351 117 2 -2.29682 -6.37082 -4.88623 -12.4118 -5.09531 12.6568
349 117 1 -3.04036 -6.12692 -4.19928 41.1642 11.3265 14.5416
350 117 2 -2.53448 -5.92919 -3.2854 -23.051 -3.81128 -29.6981
104 35 2 -6.0392 -5.23844 -4.5385 3.37038 -15.8604 1.5538
105 35 2 -4.60596 -6.1716 -4.45311 -0.627612 2.91297 3.14121
103 35 1 -5.64713 -6.19153 -4.43044 -7.78148 6.264 -2.48146
365 122 2 -5.71362 -0.345465 -6.42661 -2.34866 -6.15063 -13.3627
123 41 2 -4.57774 -2.13876 -6.06007 4.89349 -10.432 -5.66065
121 41 1 -5.39362 -1.94146 -6.63408 -2.6859 27.832 18.599
594 198 2 -1.42582 -0.270117 -5.65891 -4.26224 12.6138 -12.0997
63 21 2 -0.265199 -6.57109 -5.79118 -3.20905 -2.21377 -7.62132
179 60 2 -3.88029 -6.59957 -8.62343 4.58048 -2.89466 8.19404
178 60 1 -3.72476 -5.93601 -9.38222 -2.78035 -5.298 -2.81354
246 82 2 -7.1816 -1.73868 -6.02548 6.68201 -4.52261 -4.271
592 198 1 -0.844816 -0.964645 -5.20036 -1.11053 -5.40561 5.01037
606 202 2 -4.12047 -2.11307 -3.43903 -12.4209 -10.5294 9.11207
604 202 1 -3.12489 -1.91716 -3.32393 8.42301 11.4277 -12.8963
593 198 2 -1.51252 -1.44841 -4.59501 4.5447 -5.16369 5.85002
602 201 2 -3.04542 -4.42797 -5.29437 -3.50605 -14.1854 11.8754
601 201 1 -2.86336 -3.47086 -5.53679 -5.8789 26.0417 -15.9467
603 201 2 -3.06227 -2.78865 -4.78597 8.84191 -13.5631 5.583
20 7 2 3.16364 -3.73112 -8.72326 -1.48593 -22.906 -13.4975
9 3 2 6.75917 -3.5538 -4.97195 3.22641 9.05352 -12.1691
8 3 2 6.08545 -3.71906 -3.57417 -2.08429 -2.01666 5.44459
7 3 1 6.80541 -4.15472 -4.13833 3.69228 -14.7304 22.8817
21 7 2 3.50074 -5.45808 -8.46369 -9.13074 22.4628 -5.06224
19 7 1 3.79263 -4.46126 -8.32682 15.3069 -4.17143 13.6452
636 212 2 5.24905 -4.99568 -9.33882 10.0208 10.9299 -16.33
87 29 2 1.15375 -4.90206 -7.63349 -2.78307 7.11201 -3.22701
86 29 2 1.43013 -4.3755 -6.06133 -12.4965 -1.67159 -15.634
235 79 1 2.90013 -6.83953 -9.26392 -5.32423 -0.92109 -8.86411
259 87 1 1.36225 -2.62251 -5.64325 -7.79908 8.34041 1.45576
261 87 2 1.47542 -2.94204 -4.69795 3.19937 -5.41675 10.7719
639 213 2 2.33997 -6.33353 -6.39752 17.4093 3.36401 11.4972
507 169 2 3.96984 -2.5054 -7.66319 -5.1667 -14.9739 -1.21692
85 29 1 1.07062 -5.15416 -6.65473 9.91688 -11.1558 15.9433
260 87 2 0.574339 -1.94571 -5.62912 4.3916 -6.72576 -6.07003
635 212 2 6.03354 -6.18949 -8.98812 20.864 -33.1839 11.2132
245 82 2 5.84131 -2.22516 -6.5366 -5.40566 5.4009 -0.742834
37 13 1 5.22242 -0.360441 -4.22608 4.41147 19.1606 -26.2741
39 13 2 4.52387 -0.098351 -4.93321 -2.57669 -5.74826 9.31489
38 13 2 6.05004 -0.481825 -4.84326 -10.88 -9.64063 21.0562
244 82 1 6.49766 -2.21407 -5.74259 4.16356 5.19595 -13.9849
336 112 2 5.29477 -6.86065 -7.49499 -5.91631 -1.97125 11.1235
446 149 2 6.37744 -6.03887 -3.41165 6.49187 -2.76517 -3.05638
447 149 2 4.79456 -6.0955 -3.64399 -12.9244 -1.7649 -5.00144
505 169 1 4.45155 -1.64149 -7.47389 3.86243 12.4265 -2.97408
506 169 2 3.77199 -0.994953 -6.99516 7.24243 -6.27994 -3.62435
637 213 1 3.19517 -6.925 -6.48345 -38.8311 -11.1527 -31.1478
465 155 2 4.73641 -0.710243 -9.08258 1.67939 9.98248 -14.8126
199 67 1 -0.925492 4.70931 -9.01533 34.9676 1.19563 -11.8241
200 67 2 -1.17089 4.2713 -8.09993 -13.41 7.11894 -13.6351
270 90 2 -4.72359 6.30005 -6.76624 -1.9601 -4.73252 3.70829
268 90 1 -3.90048 6.54192 -7.31035 2.80748 -10.6855 -21.2731
269 90 2 -3.77827 5.82624 -8.05561 1.13709 13.348 12.6674
364 122 1 -6.02865 0.631641 -6.39824 -1.35305 19.019 20.572
366 122 2 -6.73774 0.898593 -7.10771 9.00591 -6.19833 -5.69431
62 21 2 -1.58741 7.04247 -6.36319 -1.29996 -0.103871 -8.10173
61 21 1 -0.903441 7.17708 -5.62277 7.42279 6.03234 11.5687
470 157 2 -5.27924 2.85161 -9.28401 9.07401 -7.35617 -15.636
80 27 2 -1.70396 1.70888 -8.12326 -3.72266 -7.99446 -18.5246
620 207 2 -0.152772 3.04595 -9.55482 -12.6868 8.29976 -2.15636
69 23 2 -5.36416 2.37852 -5.02538 4.18319 -1.96621 -5.01106
194 65 2 -7.20325 2.90671 -8.74519 -7.52915 -23.2996 4.42323
67 23 1 -4.45563 2.71964 -4.69456 -4.80478 -1.17188 11.3026
68 23 2 -4.06457 3.34793 -5.388 -3.92018 5.77657 -6.19029
569 190 2 -0.191654 3.46338 -6.76035 21.6217 -1.68878 5.52662
568 190 1 -1.15731 3.74409 -6.5882 -45.7279 26.306 22.3343
570 190 2 -1.30809 4.53487 -5.90699 13.5569 -27.08 -15.3043
342 114 2 -2.94658 3.55342 -3.79869 2.18368 1.21674 -1.12044
340 114 1 -2.23843 4.28706 -3.71453 -7.26658 -3.2897 5.3215
193 65 1 -6.76437 3.81475 -8.85367 8.80364 30.2578 -5.01677
79 27 1 -2.18961 1.4873 -9.01324 -10.9853 -0.423623 32.8419
599 200 2 -6.58355 4.44017 -7.28643 11.7733 -10.6226 -16.6196
598 200 1 -6.19329 4.60875 -6.35559 -5.09252 14.5718 9.41701
617 206 2 -3.37716 1.04302 -5.76098 0.125608 4.04145 -1.49303
303 101 2 -0.659878 1.15327 -3.37778 9.12023 -2.61069 13.0405
81 27 2 -3.18323 1.49258 -8.71415 15.5289 -0.338105 -18.1479
600 200 2 -7.02522 4.93276 -5.86462 -3.6565 -4.43241 14.1969
618 206 2 -2.28057 2.27242 -5.99761 7.89792 -0.732497 -3.2334
616 206 1 -2.47271 1.28062 -6.17352 -1.16324 -9.0193 5.70751
44 15 2 -5.70786 4.85172 -4.0208 -1.83071 -0.145605 -6.15273
43 15 1 -5.38798 5.57809 -3.39377 5.4191 4.78634 -0.502703
45 15 2 -5.34982 6.46973 -3.8985 -3.09303 -0.591814 2.28237
500 167 2 0.0793695 6.26477 -4.07341 2.29545 -2.85174 3.24848
638 213 2 2.91534 7.15731 -7.38604 23.082 11.0445 19.0296
334 112 1 6.10172 7.06708 -7.61394 -2.79727 5.5338 -11.6176
335 112 2 6.39022 6.70484 -6.71217 -0.309881 -1.61898 5.21404
36 12 2 5.37173 1.94747 -3.46323 8.38103 6.44034 2.98443
285 95 2 6.55888 0.873973 -9.2194 15.8549 -5.91425 -11.6869
283 95 1 6.89635 1.37808 -8.39256 -39.4782 -6.0836 -1.19455
284 95 2 5.92364 1.42998 -8.05016 13.845 7.66571 14.1326
237 79 2 2.01185 7.20393 -9.3832 4.32058 1.71167 -1.81139
414 138 2 1.60876 2.59392 -7.99402 14.5423 -4.84524 -16.5235
412 138 1 1.28893 2.94388 -7.10591 -21.4602 -8.98303 12.5078
413 138 2 1.91962 3.58521 -6.65251 18.543 11.6569 3.67363
164 55 2 4.1501 2.64942 -7.35095 9.77442 3.82208 11.5258
165 55 2 5.2587 2.81319 -5.99465 -3.03493 11.5952 -6.40486
387 129 2 5.6921 6.34862 -9.22335 -4.57683 -2.78768 11.8872
229 77 1 3.05381 0.0642733 -6.12821 20.6183 7.47597 5.8018
230 77 2 3.53363 0.968309 -6.30923 -1.52166 -2.98017 -3.85585
231 77 2 2.64109 0.115701 -5.19721 -13.0548 0.786282 -2.93454
163 55 1 4.61171 2.228 -6.52488 -7.08343 -14.483 -10.0524
129 43 2 3.52769 1.31228 -9.63483 3.61473 -5.2155 -0.279247
127 43 1 3.09959 2.20281 -9.36537 -8.30728 18.2343 5.19538
480 160 2 5.8744 4.05794 -4.05444 -9.07754 11.6349 -10.2253
647 216 2 0.381914 0.239931 -5.15951 -13.3658 -18.0804 4.20178
478 160 1 5.87576 4.64916 -4.92 9.60004 -7.92303 -0.748818
90 30 2 3.20427 6.02013 -5.89431 -2.10684 -4.2504 9.24016
479 160 2 4.92465 4.88027 -5.25372 -0.454519 -4.14782 7.25342
89 30 2 2.85095 4.56192 -4.96021 -3.80685 0.626367 3.98652
88 30 1 3.27329 4.98903 -5.80369 10.6048 3.41509 -17.9771
563 188 2 1.78943 2.5148 -4.19827 -7.11694 15.028 5.39322
564 188 2 1.38031 4.10979 -3.61256 -2.82619 -9.54472 0.827408
562 188 1 2.09974 3.4895 -4.00556 -0.109156 -5.3315 0.481132
648 216 2 0.999661 1.51617 -5.93424 0.492179 4.75766 8.18462
646 216 1 0.88092 1.10442 -4.99334 6.08229 22.5013 -0.645258
117 39 2 -6.27439 -3.46974 -3.1969 12.0064 10.7372 4.76338
115 39 1 -5.55089 -2.84621 -2.78339 -15.8313 -23.7048 -20.6026
116 39 2 -5.98988 -2.28061 -2.06735 -2.1825 14.4358 11.6865
544 182 1 -2.16362 -5.12784 -1.73366 -20.2173 -22.282 4.72471
337 113 1 -5.32614 -3.41682 2.46615 0.0670483 -8.21606 6.79902
338 113 2 -5.78625 -3.0646 1.61949 -7.689 8.92152 -2.65931
605 202 2 -3.10005 -1.34312 -2.46452 8.00403 -7.32343 2.83511
232 78 1 -2.42207 -0.616757 1.79769 -28.6023 16.123 5.0205
460 154 1 -7.13799 -3.06665 0.347006 -0.707609 -37.3723 -11.7311
462 154 2 -7.02764 -4.07473 0.114922 13.3188 9.52398 10.4774
233 78 2 -2.66895 -0.319113 0.835745 10.7044 -3.64707 3.63308
91 31 1 -4.50555 -6.63808 -1.40434 -24.7367 0.23631 15.1671
93 31 2 -5.22209 -6.53405 -0.645297 20.0619 3.01976 -9.54458
279 93 2 -5.07483 -6.57706 2.05372 -5.82553 6.2303 7.65753
546 182 2 -2.5817 -4.23667 -1.96373 5.03517 12.7779 -4.14335
397 133 1 -0.178805 -1.96722 -2.09708 21.297 4.8113 -14.7494
399 133 2 -0.698667 -2.53164 -1.43811 -7.63126 -8.77665 0.324473
545 182 2 -2.96589 -5.67134 -1.34072 11.5211 3.30597 -6.42608
276 92 2 -2.00329 -1.97044 2.99125 -6.33393 16.2568 6.30884
321 107 2 -2.69742 -2.06635 1.02401 -1.33358 10.4443 -0.665869
420 140 2 -4.28422 -0.168571 -1.04607 5.16069 -4.69409 -1.20844
418 140 1 -3.27872 -0.382184 -1.12412 -13.2354 14.6475 -3.83307
92 31 2 -5.09891 -6.74995 -2.23365 9.66756 -1.75668 -1.45099
277 93 1 -4.82148 -5.83926 1.41047 16.0019 -6.46766 -15.7453
253 85 1 -7.19487 -5.85737 -0.248695 -19.6314 10.7286 -13.2891
278 93 2 -5.07422 -4.86943 1.65533 2.27243 -6.05408 13.3581
320 107 2 -3.28805 -3.28222 0.00345674 -6.03372 1.8164 0.603127
319 107 1 -2.47309 -2.77872 0.327288 15.8704 -27.738 -0.495838
607 203 1 -1.81126 -6.75919 1.40978 -0.00530013 -29.3709 11.8085
608 203 2 -2.72784 -6.57199 1.04247 -12.2362 16.6344 -7.10728
367 123 1 -6.30862 -0.519537 -1.35091 -0.3916 6.53774 -1.94499
368 123 2 -7.01754 -0.289024 -0.653778 0.853356 -1.77984 5.46069
167 56 2 -1.15612 -3.55095 1.51366 14.3556 -14.764 4.51214
234 78 2 -3.07875 -0.0914208 2.41902 14.1067 -7.10928 -6.22076
536 179 2 -6.63371 -4.40282 3.01163 5.48379 -3.26608 -0.648156
166 56 1 -0.487468 -4.11071 2.08974 -19.576 17.4519 -5.99694
168 56 2 -0.613384 -5.09001 1.83558 -3.22174 -6.97866 -3.25917
573 191 2 -6.80139 -1.23303 3.1462 -3.01464 7.16736 1.95186
557 186 2 4.86898 -1.08665 -0.163347 6.42571 1.00086 10.4889
96 32 2 4.68746 -1.17738 -2.76378 7.05992 8.73351 -5.78752
445 149 1 5.54398 -6.58032 -3.18135 9.39301 8.32163 0.155269
398 133 2 0.191412 -2.49888 -2.91103 -13.104 2.91954 24.0265
485 162 2 5.87758 -1.88785 2.08943 -7.05657 5.52398 -2.46204
484 162 1 5.90777 -2.24046 3.05436 13.4012 -6.92482 6.52617
558 186 2 4.33761 -0.176956 1.06064 0.820728 9.71989 9.08356
461 154 2 6.59117 -2.93743 -0.240661 -7.84453 22.4385 1.09534
314 105 2 3.06996 -4.15726 -0.0417513 6.78682 2.674 4.656
613 205 1 1.43053 -1.18177 1.91766 5.19596 -6.2151 -22.9739
94 32 1 4.68621 -1.52246 -1.79769 -11.1953 -27.6921 13.4926
300 100 2 1.91141 -4.55597 -2.34222 0.604045 1.25043 2.80468
299 100 2 0.416509 -5.2567 -2.26679 4.00388 13.3145 -10.0674
95 32 2 4.16468 -2.41495 -1.74116 6.27668 15.2174 -1.38461
298 100 1 0.983423 -4.56131 -2.77576 -1.42775 -10.3399 6.96312
614 205 2 1.42458 -0.458557 2.62935 -0.253929 5.49655 16.6178
556 186 1 4.95865 -0.961929 0.872875 -2.22233 -4.05575 -26.6471
381 127 2 4.19026 -2.46597 1.26915 -16.0608 2.0531 2.59426
254 85 2 6.79653 -5.81346 0.634676 1.53805 -9.67169 -8.98705
379 127 1 3.35478 -3.07743 1.33371 -1.73206 -11.6769 -9.0213
380 127 2 2.47321 -2.53984 1.29351 11.3176 6.86674 10.5918
497 166 2 5.91409 -6.02389 2.49463 -0.489503 6.94971 -11.6132
315 105 2 3.45904 -5.61786 -0.74456 1.34925 1.11455 0.233579
313 105 1 3.28019 -4.63097 -0.930985 -4.99612 -2.84661 -10.0201
496 166 1 5.50701 -6.3209 1.58666 3.36886 -5.0285 29.7652
255 85 2 6.65672 -6.15554 -0.965444 14.4357 -1.6476 10.3897
311 104 2 0.428409 -0.742856 -0.966555 -2.08176 12.2885 6.37916
615 205 2 0.526835 -1.5607 1.66369 -10.3914 -1.51475 11.1623
6 2 2 4.02401 -6.58022 2.70417 -2.49435 7.64413 -10.2968
312 104 2 0.84968 -0.212151 0.590551 1.77827 1.52763 -11.6953
302 101 2 -0.195918 0.772586 -1.73245 0.469797 -0.690924 -2.99501
341 114 2 -2.33746 4.73724 -2.79477 6.79699 2.15165 -9.91959
301 101 1 -0.911297 1.1285 -2.3812 -18.6821 7.92094 -12.378
644 215 2 -7.0355 2.95475 -2.55055 21.8917 6.95272 15.3601
374 125 2 -2.90299 6.22431 -1.27456 7.16228 6.68027 -5.98351
17 6 2 -4.61678 5.0491 -0.199166 -0.399134 4.60046 3.36812
501 167 2 -0.433475 6.05284 -2.5364 4.67541 -10.9204 -2.37724
373 125 1 -1.93008 6.18915 -1.60375 -4.51933 -2.61239 1.92445
561 187 2 -5.21266 1.18145 2.64888 28.8607 11.3309 8.26818
609 203 2 -1.9764 6.86238 1.8715 10.9591 19.1333 1.09697
567 189 2 -0.81794 4.97747 0.848622 12.3275 14.6164 -4.7669
565 189 1 -1.22725 4.0675 0.83784 -25.3598 -15.612 9.60453
566 189 2 -1.05906 3.55056 -0.0157193 10.0272 0.422383 -8.6571
369 123 2 -6.42849 0.164577 -2.09172 1.05699 -0.263696 -2.36025
375 125 2 -1.57045 7.13548 -1.71552 -5.4319 5.07239 5.0715
560 187 2 -3.66943 1.78429 3.19074 15.215 23.9944 -4.78126
559 187 1 -4.32803 1.02119 3.18277 -46.5542 -32.1464 -11.0755
589 197 1 -2.1397 2.64499 2.95967 -5.0396 -10.6215 5.09365
513 171 2 -3.25152 5.00934 2.80087 6.03767 8.2889 11.2013
419 140 2 -2.83428 0.216333 -1.83415 6.62559 2.47487 9.98298
51 17 2 -6.90919 2.41907 -0.477513 2.02172 -6.90751 -8.22169
16 6 1 -5.45975 4.53207 0.0110706 7.22866 7.94431 12.3744
18 6 2 -5.60305 3.92841 -0.807669 -11.3435 -5.81341 -6.51773
643 215 1 -6.11655 3.04503 -2.0381 -20.4431 -13.5984 -16.4958
645 215 2 -5.35332 3.33833 -2.66163 -8.43723 -1.82064 -2.08885
590 197 2 -1.74615 2.86021 2.03555 4.57354 9.37638 -2.0408
347 116 2 -7.11019 4.72757 0.571769 5.22705 8.73806 -17.1517
35 12 2 4.84594 2.76054 -2.22406 2.30401 15.2909 19.5196
34 12 1 5.60425 2.7841 -2.91371 -0.506979 -23.149 -22.4289
524 175 2 5.45346 6.65836 -2.13454 2.83786 7.38671 -7.72231
499 167 1 0.400335 5.96937 -3.14016 -4.64456 6.98048 -2.92617
50 17 2 6.96926 2.81243 0.887543 -11.8984 11.925 12.5721
49 17 1 7.22606 2.00336 0.362661 12.3461 -12.4577 -8.57115
498 166 2 5.51934 7.19713 1.58466 -0.278362 -0.725177 -9.39706
348 116 2 5.80733 5.13935 0.0436871 18.5879 -1.74434 -4.10792
153 51 2 1.48023 2.81471 1.16016 -2.03292 13.0577 -11.3658
151 51 1 1.28864 2.8798 0.147285 9.09206 -22.5453 16.2324
152 51 2 1.09622 1.89437 -0.0989697 -2.48607 8.67225 -8.54079
523 175 1 5.26197 6.17705 -1.25175 0.848282 -8.84524 18.4704
305 102 2 3.08558 3.20716 -0.65696 12.5284 -6.12942 13.5735
304 102 1 4.10847 3.05311 -0.58798 1.44284 5.98184 -4.20938
525 175 2 4.23793 6.10805 -1.17774 -5.59074 -1.05596 -2.76578
306 102 2 4.50946 2.90817 0.370587 -20.854 -4.14622 -23.4358
310 104 1 0.556032 0.0961882 -0.353258 7.19585 -11.4315 0.0333158
346 116 1 6.42064 4.71098 0.775324 -15.7141 -1.99879 17.58
249 83 2 1.91824 6.02117 -2.01502 3.10173 6.09102 -5.52067
435 145 2 5.01918 1.93244 2.43794 -17.2557 7.35687 -4.73728
433 145 1 4.16421 1.94682 1.8583 31.7131 -28.8092 -1.83755
434 145 2 3.50817 2.69085 1.99287 -14.7688 19.3571 17.9829
248 83 2 2.12005 5.62233 -0.492118 -0.72104 -7.66923 14.5964
247 83 1 2.55438 6.16037 -1.21895 -6.76591 1.36994 -9.66586
24 8 2 1.3896 4.39127 2.89715 -12.5168 4.66427 6.86241
22 8 1 2.271 3.87366 2.88495 5.55657 -14.8151 -22.8322
331 111 1 6.57277 3.63885 3.18612 -0.90857 13.3401 -18.82
332 111 2 6.51164 4.04894 2.22238 -3.96332 -1.8769 10.3284
339 113 2 -5.47972 -2.80255 3.28378 2.97466 5.72746 -12.7538
274 92 1 -1.91182 -2.39122 3.92466 6.83138 -29.9107 -28.6076
150 50 2 -2.75954 -3.10457 5.80473 -0.101576 -0.143036 -1.90362
148 50 1 -3.344 -3.63192 6.46379 -5.93558 -6.62007 -7.48684
149 50 2 -4.12235 -4.1419 5.95856 11.3661 5.58083 9.29678
275 92 2 -1.45434 -3.28258 3.66197 -1.48225 8.72775 8.59736
442 148 1 -2.82215 -3.87721 9.18136 11.027 -9.67138 -31.8432
443 148 2 -2.90419 -3.81488 8.13701 -13.6231 9.87229 17.6935
444 148 2 -2.02859 -4.51382 9.26082 10.017 -7.51367 11.3377
402 134 2 -6.4323 -0.607192 7.96674 -3.15233 0.818334 7.25597
288 96 2 -4.29199 -2.00303 6.47117 1.4553 6.93148 2.85536
286 96 1 -4.63883 -1.06263 6.2362 5.27496 -10.3302 0.772567
326 109 2 -6.2293 -4.93309 4.93622 10.6017 2.85501 3.90549
325 109 1 -5.33832 -5.04707 5.45829 -20.4079 10.5016 -17.9614
327 109 2 -5.34622 -6.02571 5.68959 4.0366 -12.7903 10.4186
107 36 2 -3.39286 -6.25216 8.19277 -24.7636 -19.7722 17.035
359 120 2 -2.35877 -5.36751 6.5704 -1.16108 -4.00602 0.957382
358 120 1 -2.31863 -6.33747 6.91287 7.76541 3.6315 -1.31867
176 59 2 -2.3633 -0.537518 6.36078 -23.1296 13.5603 -3.34946
400 134 1 -6.02996 -1.04777 8.80859 -8.27763 -2.30042 9.09935
287 96 2 -5.26614 -1.13934 5.43747 -2.98202 5.2059 -11.0046
344 115 2 -6.23446 -3.3339 8.40102 4.12577 4.80521 6.4422
343 115 1 -6.1627 -4.0523 9.12496 -6.85861 4.76555 -0.679657
360 120 2 -1.32262 -6.60348 7.02781 -5.47842 9.33076 -1.27988
177 59 2 -1.6752 -1.53828 5.10439 -9.43648 -1.45521 9.01108
175 59 1 -1.59196 -1.09259 6.05104 31.5081 -4.47227 11.9308
571 191 1 -6.002 -1.07012 3.76696 12.2322 5.71296 12.2614
354 118 2 -0.977667 -0.402429 8.06448 5.9381 13.6023 6.77174
71 24 2 -6.60882 -5.43117 8.36861 18.9395 2.29737 -0.52365
70 24 1 -6.53046 -6.37343 7.94394 -10.0757 -18.3118 5.26197
108 36 2 -4.3482 -5.7163 9.44489 -1.91152 3.69286 -1.02156
106 36 1 -4.12506 -6.5567 8.90561 34.5719 16.4861 -7.64938
110 37 2 -6.68145 -2.40832 6.08717 -16.0972 15.231 4.97732
297 99 2 -0.962982 -0.0231468 4.62158 11.6001 9.58807 6.04184
572 191 2 -5.51064 -0.149016 3.66448 -8.50461 -19.8856 -2.71165
401 134 2 -6.55877 -0.847914 9.67484 6.49431 0.634152 -11.8694
72 24 2 -5.58733 -6.76755 8.19979 -12.1588 13.8138 -3.3846
125 42 2 -4.36078 -0.518976 8.96192 -16.7779 -4.89173 0.449465
124 42 1 -3.60256 -0.142904 9.53398 37.7936 -3.28267 8.80472
1 1 1 2.9145 -2.29006 4.67647 -13.9317 35.0473 14.9554
3 1 2 2.44782 -2.93748 4.05407 12.1162 -12.719 -3.743
2 1 2 3.75125 -2.51811 5.22614 2.0356 -29.2745 -8.46443
486 162 2 5.09713 -1.90113 3.56681 -4.49976 0.0367473 -1.95293
5 2 2 2.49362 -7.03345 3.29686 3.8175 6.69725 5.80736
4 2 1 3.51661 -7.09888 3.41648 6.43142 -16.9711 10.6639
535 179 1 7.07085 -4.78927 3.46637 -14.5946 21.0716 -4.69987
239 80 2 4.75198 -6.09028 6.39487 5.48983 -8.74531 -4.30132
238 80 1 5.29766 -6.66929 5.74276 -4.98245 -6.44194 -3.75734
440 147 2 5.40151 -4.39909 6.31903 -9.67518 -8.04863 -5.04262
439 147 1 4.92399 -3.64313 5.83514 3.17804 -7.26746 7.27548
441 147 2 5.62542 -2.9152 6.00559 5.7172 13.0225 -2.07552
30 10 2 1.87347 -4.07558 7.69275 0.669624 -12.2586 6.23243
28 10 1 1.46717 -3.26818 7.23394 3.2254 5.69579 4.49177
29 10 2 2.01288 -3.11092 6.39112 -2.35757 6.82782 -5.42042
537 179 2 6.39737 -3.98634 3.37949 8.91147 -16.1657 6.65746
416 139 2 0.451308 -5.42246 9.42945 4.84701 -4.99086 4.51781
112 38 1 4.91459 -2.83195 8.872 1.76859 -17.6121 -3.38009
407 136 2 1.17483 -6.45379 7.50675 11.7791 0.256525 10.7109
357 119 2 6.2515 -5.72616 8.25637 -6.8744 -22.6733 -8.94274
356 119 2 5.34305 -4.57395 8.62281 -25.434 6.55613 1.74337
355 119 1 5.24494 -5.54574 8.29718 19.9721 19.8829 5.10202
111 37 2 6.75885 -1.09963 6.4318 9.09096 16.7628 4.58235
109 37 1 6.93977 -2.10918 6.45902 9.95772 -41.5701 -7.19746
159 53 2 0.557013 -5.65004 3.95774 -2.85809 14.8449 -13.152
451 151 1 3.385 -0.486889 9.40959 -18.6437 9.5769 -35.2831
114 38 2 5.61124 -2.24529 8.42758 3.92196 7.7907 0.374834
185 62 2 3.37961 -5.7078 8.28474 -9.54766 -0.139846 6.78241
184 62 1 2.3715 -5.69821 8.54638 12.2846 3.66856 8.81334
186 62 2 2.33148 -5.82016 9.57571 1.33711 -6.29093 -8.91572
330 110 2 2.56871 -0.35272 4.99703 -1.25257 -5.19569 -9.47638
240 80 2 4.78717 -6.82989 4.86662 -2.87122 5.77977 4.79523
406 136 1 0.468129 -6.59826 6.78593 -28.3601 -16.3327 -20.5331
453 151 2 3.2962 -1.27033 8.7567 10.85 -4.63593 14.3231
158 53 2 0.692035 -6.60564 5.23747 12.37 2.32945 -12.5765
157 53 1 0.923652 -6.54738 4.21336 -9.41397 -14.3612 15.8107
509 170 2 1.08461 -2.62977 9.08207 -1.81788 -1.97903 -8.26637
511 171 1 -2.88738 5.83765 3.30251 -6.26757 -2.82611 -7.58424
410 137 2 -0.944411 5.49835 3.57521 7.03197 -6.02675 -3.72003
131 44 2 -4.80931 4.63642 7.81516 2.80682 -0.556895 11.9634
352 118 1 -0.810386 0.335822 8.77615 -1.8578 -14.1715 -6.60801
353 118 2 -1.66589 0.424081 9.3298 0.758421 -0.101759 -3.45255
212 71 2 -6.3162 4.52971 5.74848 8.28347 -7.69525 -31.8654
333 111 2 -7.1671 4.12072 3.65684 -2.2506 -5.50497 1.62814
591 197 2 -1.55025 1.92229 3.43348 2.14616 1.48779 -6.12811
211 71 1 -6.05684 4.63791 4.73242 -10.3925 5.45975 35.4574
130 44 1 -4.43478 4.69889 8.77311 -3.92212 -5.34436 -6.35514
213 71 2 -5.28065 5.28901 4.77049 5.50622 2.20241 -0.886055
576 192 2 -3.29361 6.90412 6.32688 2.27455 -14.184 4.87087
575 192 2 -3.36585 5.16347 6.00717 9.13497 7.57965 3.4916
574 192 1 -3.86855 6.06286 6.11221 -9.27705 1.73116 -17.5642
512 171 2 -3.40057 6.03321 4.17505 7.31315 -5.20091 -7.17898
626 209 2 -7.18176 4.38488 7.38776 11.3348 -8.87941 3.06556
625 209 1 -6.63639 3.4954 7.28127 -8.15981 26.4522 -7.73809
627 209 2 -7.01054 2.87983 8.04807 6.78934 0.193839 -10.4301
132 44 2 -4.4192 3.75877 9.21335 4.70072 6.29818 -1.47203
57 19 2 -2.87262 5.27178 9.47338 -15.6367 1.09993 -5.43495
597 199 2 -2.00865 3.56205 4.401 -0.755105 5.73208 -4.53858
595 199 1 -2.38036 3.74703 5.34256 -5.07231 -13.2984 12.9357
56 19 2 -2.74203 6.94344 9.60304 -1.89438 -12.7412 -3.02278
596 199 2 -2.72194 2.79009 5.56861 1.60178 13.5962 13.3343
318 106 2 -3.98737 0.775297 6.1839 -2.23559 -4.79745 4.80071
317 106 2 -3.46236 1.35695 7.67156 -0.963919 -1.58948 -4.16665
316 106 1 -3.30951 1.37591 6.66162 2.60662 5.875 -1.52581
295 99 1 -0.612614 0.851546 4.20408 -3.53925 6.52716 -3.96168
579 193 2 -1.05219 4.59623 6.85171 -0.101746 -0.885251 -4.6351
578 193 2 -0.908257 5.65783 8.11564 1.59991 -1.55988 2.18602
577 193 1 -0.421344 5.26133 7.30875 -4.17734 1.09808 -3.10616
411 137 2 0.488759 6.26495 3.79482 4.6717 8.92288 0.261634
409 137 1 0.0774676 5.38426 3.48988 -14.26 2.89221 -0.0478578
23 8 2 2.88838 4.27659 3.57298 4.47761 5.05338 15.6187