ITEM: TIMESTEP
36500
ITEM: NUMBER OF ATOMS
648
ITEM: BOX BOUNDS pp pp pp
-7.2384177193099983e+00 7.2384177193099983e+00
-7.2384177193099983e+00 7.2384177193099983e+00
-1.6085372709578035e+01 1.6085372709578035e+01
ITEM: ATOMS id mol type x y z fx fy fz
480 160 2 -0.566427 -4.11135 -15.9799 6.81588 4.63825 -12.3109
331 111 1 -5.36526 -3.78921 -13.6731 -13.6558 18.617 -12.0196
333 111 2 -5.10207 -4.27773 -12.8298 7.12876 -10.7244 8.83433
332 111 2 -4.57442 -3.6273 -14.3168 2.71333 -7.92921 9.5144
625 209 1 -5.35449 -5.82981 -11.5477 1.10828 1.786 1.78527
14 5 2 -6.80317 -3.00121 -12.1331 -24.8328 -7.32377 17.9851
207 69 2 -6.6752 -3.24283 -14.6955 11.2363 -5.32817 -0.0283841
432 144 2 -2.35417 -3.51539 -14.2492 -26.0189 -0.0742569 -3.39981
431 144 2 -2.26994 -4.88388 -14.9681 1.85705 -23.033 -9.44667
430 144 1 -2.89749 -4.10353 -14.9258 17.1601 19.0744 16.9381
13 5 1 -7.17249 -2.8727 -11.1647 20.1393 6.77373 -36.3639
334 112 1 -1.92581 -2.71097 -12.8045 4.40289 -4.31114 -24.7615
336 112 2 -1.64011 -2.61735 -11.8567 1.62506 -2.88064 32.9478
15 5 2 -6.28776 -2.45706 -10.8366 -0.703281 -2.53327 15.8678
627 209 2 -6.26104 -6.1637 -11.1696 5.67694 -0.722403 -1.82031
335 112 2 -1.45843 -1.95504 -13.2859 -1.95261 12.4535 -9.19858
644 215 2 -4.19016 -6.75377 -10.449 -3.73942 3.61646 7.71947
242 81 2 -0.0642095 -3.61932 -12.8438 -3.1784 1.26726 -2.90611
626 209 2 -5.0484 -6.31751 -12.3902 -6.52613 -3.74813 -6.62302
145 49 1 -4.61773 -0.0903469 -14.3539 4.58008 -0.153508 -23.8385
248 83 2 -0.70804 -6.74569 -15.8503 11.7332 6.03807 -8.35116
131 44 2 -5.6465 -6.86769 -15.2608 1.64811 -3.6179 4.28894
130 44 1 -5.018 -7.0834 -14.4792 -18.194 30.9397 10.2665
343 115 1 -1.6487 -1.93829 -9.9397 -3.9852 -9.66698 6.60452
345 115 2 -1.37199 -1.16719 -10.5203 0.945598 17.3724 -10.8431
369 123 2 -3.9956 -2.41613 -11.3717 -3.99521 3.24701 2.84514
368 123 2 -4.29743 -2.21369 -9.70611 -11.6358 -6.57148 -39.7499
367 123 1 -4.69052 -2.09122 -10.688 22.7285 -17.1496 40.2946
376 126 1 0.115264 -2.31536 -16.0211 -13.3198 25.6337 3.57445
116 39 2 6.19494 -3.99352 -9.8385 -0.994869 -7.59327 19.4909
205 69 1 6.99283 -3.20617 -15.3228 -15.5126 3.41205 -16.5289
378 126 2 0.110496 -1.56114 -15.2953 2.9218 -13.1936 -6.55743
523 175 1 0.0409368 -0.267409 -14.2635 -24.9157 15.5116 3.88657
383 128 2 4.2917 -6.38178 -12.9129 1.71246 -10.4614 17.5584
243 81 2 1.59499 -3.99297 -12.6982 -18.1591 1.22489 2.22658
525 175 2 0.682407 -0.343365 -13.4813 -1.01031 3.03876 9.93777
241 81 1 0.646657 -4.06285 -12.275 20.9948 -5.99029 3.74873
558 186 2 3.18589 -0.911262 -12.4054 0.0777384 -2.70145 -10.6327
557 186 2 3.175 -2.67337 -12.4455 9.93623 13.9982 -7.07515
556 186 1 3.33755 -1.79014 -11.9093 -8.90537 -1.26122 6.58381
263 88 2 0.840051 -0.530273 -10.3933 -0.405642 -26.6379 -33.8369
262 88 1 0.799339 -1.15546 -11.2586 0.270319 25.7184 28.0934
264 88 2 1.73359 -1.51018 -11.5333 -3.71231 3.0192 10.7224
2 1 2 4.11516 -2.91324 -14.7638 -3.64089 2.5452 0.670479
362 121 2 3.28422 -4.72409 -12.9068 8.60246 11.0214 -3.32313
363 121 2 2.76428 -4.40498 -14.3627 8.43351 20.775 -6.78481
361 121 1 3.13014 -3.89393 -13.5293 -15.7398 -35.6707 8.68137
1 1 1 4.59831 -2.21728 -15.3479 10.4244 -10.67 8.55085
3 1 2 5.62627 -2.43751 -15.2682 -12.7015 -1.15198 0.664591
382 128 1 3.41962 -6.31431 -12.3411 -19.0608 24.0022 -22.3534
384 128 2 3.32719 -6.86629 -11.4858 21.3689 -12.0608 7.00698
622 208 1 5.61903 -0.366816 -11.3808 -6.58832 23.7939 4.74085
624 208 2 4.87498 -0.861414 -11.8753 1.10804 -11.5762 4.42963
623 208 2 6.40899 -0.970865 -11.2084 7.30243 -14.4026 -0.704713
81 27 2 0.372018 -6.53465 -10.74 -1.46407 -2.14055 -16.9111
221 74 2 6.69804 -6.09532 -13.0459 -18.3898 0.5427 -10.3562
220 74 1 5.85359 -6.21863 -13.6334 11.0535 0.515167 28.072
532 178 1 6.76392 -7.08825 -10.5208 -5.20914 -25.7418 -12.7015
45 15 2 1.55777 -6.89058 -12.6227 5.89596 4.49976 -11.9955
222 74 2 6.10708 -6.08314 -14.5954 5.5877 0.305273 -14.879
39 13 2 1.23045 -3.67423 -9.82098 -10.2348 -15.4211 29.7384
79 27 1 0.401868 -6.88422 -9.79841 4.64361 10.0469 10.669
174 58 2 4.18434 -0.826942 -15.8874 6.42165 -4.56435 0.332001
643 215 1 -3.98374 6.90631 -9.85793 15.7043 7.85425 0.18988
645 215 2 -4.3966 6.12452 -10.3203 -9.94263 -15.5748 -5.63137
524 175 2 -0.815479 0.311336 -13.9847 22.4054 -16.5039 -10.7514
396 132 2 -2.4485 1.01454 -12.5897 10.7039 0.385244 -7.40385
146 49 2 -5.08926 0.0827441 -13.4948 -13.1744 5.08937 27.3409
147 49 2 -5.14912 0.399328 -15.0804 -7.20326 -5.79781 -5.64353
394 132 1 -2.31753 1.01469 -13.6255 -6.06614 9.86581 7.13774
620 207 2 -5.32085 0.521282 -11.2187 -7.45975 21.7554 -21.0733
619 207 1 -5.61167 1.19627 -11.9794 2.71372 -35.6049 14.1111
621 207 2 -5.45301 2.11733 -11.5894 1.91246 18.29 2.66623
226 76 1 -3.22457 3.64959 -12.047 26.418 6.35933 -13.9234
227 76 2 -3.08956 3.87007 -13.0546 -13.1918 -1.20308 20.9341
132 44 2 -4.72401 6.44777 -14.5854 13.58 -27.0366 -11.7574
228 76 2 -4.15184 3.86149 -11.6063 3.32633 -4.47112 -19.2019
395 132 2 -3.29561 1.1203 -13.9646 18.6354 -14.6232 -3.61921
201 67 2 -2.98946 4.94322 -15.3882 -13.1171 -8.02411 -7.61243
199 67 1 -3.89136 5.20108 -15.8541 -11.6901 -3.31092 -15.6823
318 106 2 -6.43927 4.33568 -11.2097 -7.65401 6.46729 -8.75819
617 206 2 -0.326061 4.11707 -11.8769 -6.58846 -7.20806 4.19977
247 83 1 -0.421533 6.81319 -15.4922 -21.5617 -11.4815 23.5578
585 195 2 -1.16864 3.77661 -14.243 21.2249 10.3564 7.15647
583 195 1 -1.72735 4.34753 -14.8688 -33.8917 -33.9687 -0.962863
584 195 2 -1.4713 5.25442 -15.2128 35.283 25.6762 4.52257
80 27 2 -0.28499 6.85825 -9.66446 -8.04363 -11.2208 1.54944
317 106 2 -5.26436 4.03333 -10.1295 7.70345 -0.885102 34.4803
316 106 1 -5.56941 3.82783 -11.0681 -11.5973 -4.59925 -15.1164
180 60 2 -2.40719 2.28881 -11.3559 -14.5544 1.21666 7.31206
178 60 1 -2.40838 1.30649 -11.0268 3.10005 -19.4136 14.5501
179 60 2 -3.20183 1.01743 -10.4159 6.7093 11.2066 -11.5254
265 89 1 -6.57163 0.883466 -16.06 -3.61554 -0.775767 -17.9443
509 170 2 -7.16 2.25034 -12.6193 15.969 -22.1483 4.27937
533 178 2 6.40921 6.91539 -9.66704 0.886974 13.0251 -1.76728
185 62 2 1.26736 0.670174 -15.4451 -9.62569 -4.83072 7.74545
458 153 2 4.78087 0.0209173 -9.74618 -12.1156 2.98067 9.31193
510 170 2 6.37227 2.22111 -14.0553 7.61872 -16.4159 -3.37781
249 83 2 0.42425 6.43227 -15.8796 17.1595 2.71891 -13.09
175 59 1 7.08092 5.45739 -12.4752 0.553297 11.5773 -24.3072
177 59 2 7.23123 6.05286 -13.3136 -3.38554 -7.47019 17.7771
176 59 2 6.82905 4.54319 -12.8692 -1.52565 -6.52014 5.1191
534 178 2 6.61905 6.66276 -11.2686 7.38644 17.3125 11.9308
455 152 2 1.43579 3.35066 -10.0727 14.5041 9.66074 -8.38128
82 28 1 3.60637 6.58659 -10.0135 -14.1703 -4.02349 -48.1972
43 15 1 0.845925 6.88088 -12.8142 -2.14012 -18.5892 29.651
44 15 2 0.341788 6.93745 -13.6826 -4.41345 12.5005 -22.9303
616 206 1 0.278081 4.17851 -12.6874 -0.415107 -7.05747 3.35976
618 206 2 0.469839 5.16758 -12.809 5.82316 17.5454 -5.07383
358 120 1 3.42074 1.5868 -12.557 6.53323 2.64341 6.19603
359 120 2 4.36685 1.49005 -12.1718 -5.94177 -2.58561 -1.7991
514 172 1 2.7137 3.89039 -11.1141 9.28427 -3.47055 6.46646
360 120 2 3.01513 2.4557 -12.1666 1.90875 -5.89651 0.90679
508 170 1 6.66435 2.71331 -13.2302 -23.6332 37.0371 -1.178
515 172 2 3.3337 4.64728 -10.8137 3.0608 1.20502 2.15931
142 48 1 4.08304 3.54278 -14.711 -10.234 -6.57546 -14.0764
144 48 2 4.69257 3.19941 -13.9702 -3.57392 0.525574 4.67099
516 172 2 1.9401 4.30372 -11.6117 -12.411 3.88409 -14.5418
143 48 2 3.29639 2.90119 -14.894 11.8788 -1.58706 8.39455
266 89 2 7.0697 1.40908 -15.9096 -6.79306 11.2226 11.392
520 174 1 6.87724 6.87812 -16.0648 16.8705 9.12255 13.5685
327 109 2 2.88171 4.64633 -15.363 9.53052 7.99309 2.24249
325 109 1 2.45913 5.29227 -16.044 -9.76495 -1.9209 2.80887
344 115 2 -0.782012 -2.36935 -9.6344 0.716869 -6.87258 5.17974
194 65 2 -2.92736 -2.32285 -8.19253 2.731 -2.07069 6.43199
193 65 1 -3.83279 -2.1806 -7.73121 1.35617 28.3505 -34.2132
195 65 2 -4.01769 -2.97816 -7.1509 -4.19765 -20.2012 21.0183
280 94 1 -1.54688 -3.59804 -4.10085 -5.38857 -2.29193 5.64274
352 118 1 -6.93233 -4.86343 -6.77864 4.55308 -2.55536 -13.4011
281 94 2 -2.10457 -2.86294 -4.55025 2.67273 1.3957 1.0367
282 94 2 -1.03781 -3.16178 -3.32197 2.91388 -2.28783 -9.81508
636 212 2 -2.43596 -6.66017 -4.39338 6.10773 -11.3202 8.44795
354 118 2 -7.14322 -5.75295 -6.31693 -5.23385 -2.49727 2.19346
634 212 1 -1.83078 -6.37229 -3.60741 -16.0834 -21.7116 -9.31967
635 212 2 -1.66967 -5.44244 -3.90805 11.8548 42.8115 -3.91585
364 122 1 -2.74692 -7.04325 -6.35261 -5.10668 0.332187 11.2073
29 10 2 -4.66588 -0.744294 -9.61896 4.1087 -1.90501 -18.3292
381 127 2 -7.1124 -2.14389 -6.186 -0.365243 6.72415 -9.42374
492 164 2 -4.70126 -4.14008 -4.75378 -0.855342 -4.78868 -3.91438
380 127 2 -5.97194 -1.50722 -7.19043 -11.9509 0.644517 0.789258
490 164 1 -4.8043 -3.72538 -5.68179 -11.3397 -8.26042 1.57707
491 164 2 -5.58754 -4.22806 -6.18351 10.0957 8.7843 7.01439
379 127 1 -6.95684 -1.41618 -6.89711 16.8844 -13.681 8.63455
157 53 1 -3.65639 -1.65348 -4.35294 0.163518 16.0142 15.4984
158 53 2 -4.02028 -2.4333 -4.90223 -11.0234 -0.812355 -13.6887
349 117 1 -1.27895 -3.86028 -7.15105 -0.697132 14.6179 -27.503
351 117 2 -1.31085 -4.48218 -6.36227 5.41721 -8.81569 8.80086
350 117 2 -0.526224 -4.04104 -7.84107 -2.88592 -2.46745 15.9557
477 159 2 -0.597146 -0.165479 -8.69363 -23.288 6.43591 1.69471
159 53 2 -4.30614 -0.855786 -4.2565 6.33209 -12.8411 -4.10402
117 39 2 5.97622 -5.58672 -9.5153 0.719678 10.673 9.06618
115 39 1 5.98527 -4.65495 -9.05631 5.1511 -3.5433 -33.321
353 118 2 7.16265 -4.95177 -7.74465 -1.48853 11.4969 10.6335
60 20 2 1.05569 -1.04492 -3.73358 2.10103 -3.03677 8.63165
37 13 1 0.867256 -4.21235 -8.99201 12.2408 40.2099 -39.6627
58 20 1 0.309406 -1.05733 -4.41335 -8.70856 7.88651 3.49173
38 13 2 0.470636 -5.02993 -9.43685 -2.99937 -22.9771 5.81154
88 30 1 3.05522 -3.75415 -7.29238 26.1586 -5.59928 13.2169
89 30 2 2.36599 -3.64895 -8.03239 -8.31371 -8.06585 -6.27704
90 30 2 3.77357 -4.46975 -7.48185 -11.7433 7.24369 -5.17712
538 180 1 1.25285 -3.98183 -5.04701 2.17284 -16.5101 12.7476
540 180 2 0.469959 -3.37846 -4.75598 7.97408 1.5591 -12.3768
539 180 2 1.70777 -3.80736 -5.94535 -2.55351 12.7796 -4.47097
499 167 1 4.72239 -2.82451 -3.94538 1.55643 -7.10224 19.2527
59 20 2 0.786996 -1.05768 -5.3174 4.57441 -3.87714 -14.4086
500 167 2 4.70983 -2.53128 -4.91746 -2.88318 13.9293 -8.51562
501 167 2 4.46764 -2.09147 -3.2808 -0.724614 0.773604 -7.94208
183 61 2 2.2436 -5.01282 -3.85581 -13.3028 9.39724 -5.78665
8 3 2 5.67021 -1.54717 -7.05612 3.78979 2.12472 -0.600171
120 40 2 6.174 -6.28861 -4.99607 -4.1162 -6.68343 3.56748
118 40 1 6.49676 -7.05797 -5.60085 -10.6354 -21.9487 5.62672
9 3 2 4.3217 -2.48686 -6.78042 -12.4237 -12.3593 -9.66533
7 3 1 4.79332 -1.62569 -6.53127 0.702003 9.22379 10.8988
285 95 2 1.29705 -0.66194 -7.49745 14.7587 -16.0396 28.1977
283 95 1 1.79238 -1.13226 -6.68663 -17.7302 27.3279 -33.6697
284 95 2 2.80202 -1.04439 -6.8341 0.110229 -4.16084 3.73944
54 18 2 4.81173 -4.40171 -3.50828 21.8479 3.15596 -3.65904
53 18 2 4.18494 -5.78896 -3.32319 -0.559656 -11.9135 3.48108
52 18 1 5.12004 -5.39039 -3.40459 -18.819 -0.518134 -1.60146
307 103 1 -1.62617 5.45161 -9.28239 -19.6005 -3.25531 15.9825
308 103 2 -2.02929 4.83516 -8.53688 25.2886 2.29782 -9.66345
309 103 2 -2.46461 5.99236 -9.52525 3.07726 7.80887 -8.83507
365 122 2 -2.20257 7.17141 -7.16239 -0.227335 -0.418187 -5.61467
28 10 1 -4.64424 0.276876 -9.61999 -7.81476 16.6128 36.9487
366 122 2 -3.73084 7.13349 -6.44679 2.66725 0.420365 -1.03597
372 124 2 -6.86758 0.706227 -6.80083 -1.22551 -7.03429 -0.684047
471 157 2 -3.44126 0.454613 -6.87642 7.97103 10.1234 1.74496
469 157 1 -3.28969 1.44143 -7.14119 4.22677 -15.6312 16.8765
470 157 2 -3.78884 1.53631 -8.00395 -8.60451 2.99653 -21.5062
420 140 2 -4.61904 3.46424 -7.84097 -2.14768 -17.9649 29.3408
418 140 1 -4.74801 4.15444 -8.53411 3.11516 33.8375 -28.687
419 140 2 -4.61845 5.10381 -8.14799 -7.17681 -9.5419 2.69427
30 10 2 -5.2144 0.473841 -8.77945 -1.20127 10.2777 -9.1749
57 19 2 -6.25563 6.85714 -6.18795 5.18618 -10.8314 4.55112
370 124 1 -6.37479 1.30238 -7.46439 0.754946 2.4571 -27.2341
135 45 2 -0.627053 0.477262 -4.02381 4.81573 -1.24697 2.55348
535 179 1 -4.75571 3.06674 -5.58419 8.32364 -16.0317 -18.1688
536 179 2 -4.06725 2.37317 -5.96823 -14.3718 13.2104 5.25763
537 179 2 -4.27809 3.79722 -5.05707 0.996187 11.6152 11.358
55 19 1 -5.3809 6.32977 -6.3356 1.66305 2.9692 -3.85137
56 19 2 -5.15478 5.71032 -5.53817 -2.82571 8.22959 -1.6059
68 23 2 -6.55799 3.30188 -5.98797 1.64609 -7.76195 -4.74752
122 41 2 -2.06741 4.16583 -6.18672 7.14611 4.17637 1.59757
123 41 2 -2.44354 2.93185 -7.2006 20.2187 14.0742 -2.79541
121 41 1 -1.87734 3.81621 -7.13394 -31.1908 -21.4095 8.29395
296 99 2 -3.02941 5.25807 -4.0388 -7.97275 -7.51658 -2.84256
297 99 2 -4.34997 6.06993 -3.4769 -3.41107 0.369523 1.10556
295 99 1 -4.06473 5.32064 -4.11072 6.74016 6.15151 2.74282
133 45 1 -0.740378 1.41267 -3.60201 -11.4082 4.757 -10.1498
258 86 2 -0.851612 5.19343 -4.44612 -11.0983 -24.2604 15.0555
371 124 2 -7.07746 1.7706 -8.06827 11.7694 -6.28346 14.7163
257 86 2 -1.19334 3.56849 -3.88362 4.33282 8.67222 -0.723397
256 86 1 -1.55277 4.397 -4.37492 15.5768 15.4256 -13.2639
648 216 2 -6.64089 1.64396 -3.64022 -28.0488 9.1593 34.5216
646 216 1 -5.85744 1.19994 -4.05402 13.5596 -2.46375 -35.2898
647 216 2 -5.77261 1.88381 -4.83125 18.1486 -12.1154 5.21978
134 45 2 -1.70315 1.5006 -3.26387 3.75222 -4.11883 0.0260406
457 153 1 4.10668 0.284365 -8.99331 16.7069 -2.598 -16.8038
459 153 2 3.17525 0.355501 -9.37121 -5.3408 -0.0131105 -3.58165
456 152 2 0.108534 3.95172 -9.17615 -6.74833 16.2034 -2.14931
454 152 1 0.608204 3.14611 -9.52311 -10.1887 -33.4974 11.7391
84 28 2 2.69977 6.52122 -9.60676 -34.9835 -4.61294 5.86063
83 28 2 4.08593 6.73048 -9.16068 39.1456 12.0365 25.0882
554 185 2 5.98131 6.96944 -7.31635 -8.38345 -10.1482 0.476855
553 185 1 5.48104 6.72786 -8.18702 0.782747 -8.42047 -4.27639
437 146 2 1.69137 6.73872 -7.45769 8.02036 0.602914 -8.50304
153 51 2 1.45259 6.20468 -3.87459 4.97191 -3.11977 2.96909
151 51 1 0.447599 6.25356 -4.04299 3.01982 -18.214 -8.62852
152 51 2 0.170245 7.21733 -4.08309 -9.64094 16.0675 2.22481
555 185 2 5.0599 5.77275 -8.24133 16.3059 7.12079 18.5229
549 183 2 5.74185 4.5034 -5.66408 2.78453 -1.86111 2.12621
69 23 2 6.38327 2.53355 -6.33021 -3.89566 -10.2785 -7.61771
67 23 1 6.90538 3.38418 -6.11547 2.47041 36.15 16.6346
612 204 2 3.4238 4.69089 -7.99123 -6.20752 -5.72265 8.9209
611 204 2 4.16799 3.30174 -7.23674 -2.31881 -0.951108 1.09691
610 204 1 4.24469 4.08168 -7.88828 6.69219 14.3918 -15.6248
438 146 2 1.48141 5.15143 -7.45552 10.5851 -3.55025 -5.8973
436 146 1 2.08183 5.88978 -7.87657 -18.3471 -0.051994 17.0746
87 29 2 4.80992 1.31861 -7.84261 -11.1059 -11.9233 -20.6616
85 29 1 5.19793 1.54852 -6.93716 8.07554 -9.24009 37.0846
547 183 1 5.02012 5.06049 -5.16949 13.6912 3.31045 -3.03489
476 159 2 0.464478 1.19458 -9.10649 -19.3808 -29.2065 10.5346
475 159 1 0.335216 0.181931 -8.8121 45.0466 28.4465 -14.4379
119 40 2 5.97695 6.53127 -5.33112 10.3989 23.7799 -5.4139
198 66 2 2.32953 3.07151 -4.13378 7.68731 -5.16056 6.48488
196 66 1 2.74114 3.78101 -4.7517 -3.90824 -0.0816514 -6.03665
197 66 2 2.08518 3.92448 -5.52489 -2.97046 -1.89941 -3.60242
548 183 2 4.15032 4.50529 -5.25119 -4.59945 5.98163 10.4062
474 158 2 0.0151531 3.78901 -6.2793 -0.633529 -4.3151 -11.1616
473 158 2 0.836221 3.08474 -7.56563 -6.1915 -15.7011 -19.1213
472 158 1 0.896352 3.73576 -6.80727 8.74496 21.9222 32.5267
86 29 2 5.01162 0.742419 -6.31931 -0.298323 7.96029 -9.41232
231 77 2 5.01723 4.388 -3.22169 4.32301 -3.11651 8.59766
413 138 2 0.963761 1.77872 -3.43273 -15.2561 -7.29973 7.54558
599 200 2 -1.28014 -5.53018 -2.07061 17.2773 1.15039 4.46087
598 200 1 -0.698013 -5.15352 -1.28662 -35.9543 -21.0947 -11.3626
269 90 2 -7.0595 -2.4516 -2.78089 -17.3834 -1.46127 -12.4623
268 90 1 -6.75531 -1.97765 -1.94996 1.84067 15.4636 22.4538
31 11 1 -0.947274 -1.25608 -0.683324 15.4497 10.3832 -16.2871
32 11 2 -1.53984 -1.72326 -0.0239056 -14.8406 -0.0450429 12.7393
33 11 2 -0.863195 -0.238769 -0.535525 -3.59627 -10.5255 0.71804
340 114 1 -4.77 -3.72738 -2.42255 19.8544 -8.05275 -21.1843
341 114 2 -5.52649 -3.19813 -2.02444 -19.8028 12.0307 15.4854
261 87 2 -0.109483 -4.12931 -0.100274 -4.19109 -14.3597 -22.1285
342 114 2 -4.16663 -3.02812 -2.85586 6.9053 0.187273 1.21852
259 87 1 -0.0246348 -3.57117 0.728358 14.9576 32.7714 45.7205
4 2 1 -4.10165 -3.34927 2.15546 -11.5969 -8.35035 1.84694
6 2 2 -3.62473 -4.05592 2.73184 13.456 12.4611 3.78058
593 198 2 -4.42332 -1.65458 1.98814 0.99149 -2.1801 -19.7167
592 198 1 -4.47016 -0.653333 1.72735 6.04536 -1.45062 53.2165
594 198 2 -4.59133 -0.443317 0.748827 -3.72668 -8.0948 -26.0764
404 135 2 -1.20768 -3.42939 2.99683 -5.97292 -3.95354 -7.50821
504 168 2 -5.67896 -0.964497 -1.33365 6.46331 6.99952 6.29892
502 168 1 -5.02766 -0.279996 -0.879929 8.94936 -17.24 -8.3072
300 100 2 -5.0327 -5.36052 -2.72269 6.84574 18.6491 5.8389
298 100 1 -5.20133 -6.35837 -2.6364 -2.61657 -20.0871 -1.08795
301 101 1 -2.39633 -5.46202 0.995028 8.55388 -22.5774 1.08864
303 101 2 -2.00982 -5.60605 1.95665 -6.15815 8.67272 -18.1417
302 101 2 -2.89846 -4.58704 0.997051 -3.32298 13.5999 3.19005
600 200 2 -1.31371 -5.42367 -0.493034 13.577 3.58757 4.1847
375 125 2 -0.162001 -2.38938 -1.85954 19.8387 2.32068 -4.57754
496 166 1 -6.37654 -4.72683 1.04547 24.555 -1.79794 14.5777
497 166 2 -6.62177 -5.67332 0.751636 -5.38874 1.41718 -2.42991
498 166 2 -7.12831 -4.03422 0.976774 -14.2327 0.749642 -0.510481
5 2 2 -4.84672 -3.87002 1.69638 -13.2099 1.00344 -11.792
576 192 2 -3.20407 -6.52467 -0.0260564 -10.5616 -15.1248 -0.575516
575 192 2 -4.35294 -6.87615 -1.2274 8.59715 -7.29115 5.00823
299 100 2 -6.21231 -6.50237 -2.60197 -5.26815 -8.08194 1.81158
138 46 2 -6.57571 -4.52456 3.17436 -13.5224 -3.82021 -2.60341
260 87 2 0.102406 -2.56031 0.560088 0.715492 -12.2811 -6.41284
98 33 2 1.45991 -5.63251 3.14123 -9.97753 -3.19179 6.85653
99 33 2 1.30254 -4.22611 2.16834 -0.883336 -17.5943 9.40115
373 125 1 0.513491 -3.08959 -2.23951 -15.7325 22.829 15.7447
374 125 2 0.123258 -3.9704 -1.87505 0.975678 -9.4455 -2.33015
398 133 2 3.09641 -4.52207 -0.333028 5.31294 -5.58348 4.30116
276 92 2 2.38619 -2.63791 -1.3276 -18.1306 -0.661848 -14.0191
270 90 2 7.05308 -1.25958 -1.57962 1.93819 -9.02507 -12.3847
275 92 2 2.40324 -1.57492 0.0139722 -0.0139487 -8.64311 -11.7349
274 92 1 2.92466 -2.25666 -0.5712 12.1028 8.73863 24.4053
97 33 1 1.94207 -4.82084 2.73534 7.95124 31.8932 -13.9505
397 133 1 3.36702 -5.14376 0.436652 -1.5065 16.3366 6.52561
399 133 2 2.97142 -4.72842 1.30806 3.64464 -18.5254 -12.8815
182 61 2 1.31881 -5.34816 -2.49766 5.69138 2.45526 -6.74852
181 61 1 2.17168 -5.59123 -3.01375 3.93205 -11.3207 14.76
209 70 2 6.13212 -7.16651 0.907505 -14.8425 -0.169725 6.83331
208 70 1 5.14993 -7.14242 1.28229 11.2071 13.6906 3.47464
210 70 2 4.57589 -6.39108 0.848707 2.03347 -0.310811 -1.15628
12 4 2 5.91257 -6.81089 -2.52183 3.12692 -0.417561 -1.35089
287 96 2 2.52414 -7.18746 -2.46585 6.90671 -5.40564 -3.64928
462 154 2 2.43253 -0.742091 1.80584 6.8656 5.3805 4.51039
460 154 1 1.5191 -0.687314 1.37194 12.5113 -15.6077 -20.7475
461 154 2 0.873542 -0.420741 2.09036 -14.283 7.6257 18.4667
614 205 2 4.9714 -6.95478 3.11241 6.87033 -1.82688 -4.41024
605 202 2 5.26164 -2.7413 0.835074 13.1885 -7.72047 17.9905
604 202 1 5.92471 -3.08854 1.55931 -13.6099 8.12323 -6.72671
606 202 2 5.52538 -3.03956 2.5207 0.737881 -3.67351 -16.4588
444 148 2 4.28701 -1.24328 3.20548 -4.10787 19.5899 4.11345
306 102 2 -4.17224 0.713482 -1.81345 14.5531 14.9522 -12.4489
304 102 1 -3.69376 1.47609 -2.3697 24.7391 -19.2359 32.7961
16 6 1 -1.1968 2.2594 -0.870836 -35.1188 18.1828 -16.9999
232 78 1 -5.04506 5.70534 2.53632 5.86182 -24.2631 1.12979
390 130 2 -4.24825 3.16302 3.02766 3.99975 -4.01166 0.407737
503 168 2 -5.51273 0.574642 -0.679183 -17.979 16.8677 3.06482
312 104 2 -0.762023 6.39133 1.37975 19.6325 8.46249 -16.863
18 6 2 -2.04007 1.93809 -1.3838 15.8582 -8.52543 10.1916
17 6 2 -1.41644 3.28737 -0.936266 15.4208 -11.6419 13.4994
305 102 2 -4.25199 1.58157 -3.19352 -21.3786 3.40036 -20.834
233 78 2 -4.39046 5.06807 2.02323 -16.8246 15.4485 15.6899
574 192 1 -3.76817 7.18901 -0.467912 3.88955 13.383 -4.95573
234 78 2 -5.70109 5.21152 3.17639 16.5954 5.67634 -12.372
278 93 2 -4.37063 2.73981 -0.909573 1.06612 0.774145 -9.83851
277 93 1 -5.3274 2.83236 -0.573616 -8.57947 -0.925221 -5.42895
279 93 2 -5.28871 2.74734 0.427058 2.88838 0.304268 21.509
603 201 2 -6.59853 6.56121 -0.073374 5.60057 -4.06578 -23.0886
168 56 2 -0.961491 5.46465 -1.02626 -1.03444 -2.56824 -0.856593
167 56 2 -2.54444 5.57247 -0.66664 -7.14023 1.17695 -0.410912
166 56 1 -1.79083 4.90235 -0.838614 3.29745 4.38993 -1.37872
601 201 1 -6.80726 6.71144 0.894732 -13.3472 13.3697 6.03409
602 201 2 -6.03193 6.32794 1.45316 8.08806 -0.825712 6.29085
389 130 2 -3.30589 2.1728 2.06979 -15.0054 4.42304 6.89957
388 130 1 -4.23013 2.64557 2.15013 5.97161 3.55917 -6.75683
531 177 2 -6.68201 2.84096 -1.558 -19.0286 3.0823 -24.3299
564 188 2 -1.07851 1.81104 2.78354 -15.6464 4.05281 7.64724
311 104 2 0.748295 6.77924 1.74322 18.4043 7.40534 13.0595
310 104 1 0.147734 6.67467 0.952721 -42.0546 -15.9574 5.26798
450 150 2 5.60916 0.647441 -0.514725 2.87286 -3.4299 5.47995
329 110 2 4.4453 0.774958 1.84659 2.46647 -4.66594 10.7751
10 4 1 6.62882 7.00298 -2.19051 9.99242 17.9247 4.55599
21 7 2 1.66301 3.34151 -0.138343 -8.54567 -11.2508 -10.2685
19 7 1 1.46339 2.31885 -0.0600237 4.7489 5.9749 1.56938
20 7 2 0.558248 2.05925 -0.499885 2.34959 11.0507 4.08969
11 4 2 6.36046 6.04301 -2.3698 -8.61386 -9.92183 -1.15415
288 96 2 2.37319 5.70593 -1.90865 -7.21795 -7.13382 10.7887
448 150 1 6.23614 0.350259 -1.2776 -6.00896 -12.8041 6.22436
507 169 2 4.47117 5.0006 -0.132169 -0.843877 -13.9557 -12.3246
330 110 2 3.70327 1.39457 0.507705 23.7534 -3.63598 9.39191
229 77 1 5.01224 4.68968 -2.2317 6.68958 -5.44496 -23.2609
230 77 2 4.30504 5.4228 -2.37297 -11.9268 7.1649 10.462
412 138 1 1.92356 1.71194 -3.09064 17.0192 6.13893 -12.4485
449 150 2 6.26968 1.13146 -1.92481 7.14974 9.51165 -5.55613
286 96 1 2.91967 6.32899 -2.50623 5.65055 17.7405 -11.2291
544 182 1 0.187981 2.87115 2.36678 36.8274 -2.06944 17.7111
414 138 2 1.99623 1.53935 -2.09629 -4.9789 1.25417 7.77464
530 177 2 6.27256 3.42696 -2.19158 10.1295 -0.738209 3.46097
529 177 1 7.06905 2.77942 -2.33601 7.36391 -0.650499 18.4767
506 169 2 4.48206 5.97321 1.05644 0.979862 24.4379 14.5048
328 110 1 4.6333 1.16252 0.922413 -29.2838 7.61144 -24.6895
545 182 2 0.621218 2.6797 1.47166 -9.72995 -7.54439 -23.266
546 182 2 1.10676 3.08638 2.81776 -21.1128 3.12222 6.16456
505 169 1 3.95633 5.16717 0.726602 7.00842 -20.0914 -7.36191
320 107 2 0.983908 5.59864 -0.253172 -27.7976 28.1559 21.1832
321 107 2 2.5911 5.26744 0.068992 -6.23241 -5.75813 -2.04273
319 107 1 1.75117 5.03032 -0.513891 19.4796 -30.317 -17.8539
587 196 2 3.04846 3.45957 1.74985 8.35605 8.59751 -5.62403
586 196 1 2.92187 3.49914 2.75344 -9.95958 -9.44606 11.6095
588 196 2 3.19644 4.41106 3.15805 -5.83245 -2.46096 1.32598
150 50 2 6.41751 5.74724 2.43009 7.18329 6.95288 -5.17665
148 50 1 6.22702 5.03703 3.12691 -1.20387 -4.78603 -3.0765
149 50 2 5.24948 4.78159 2.97394 1.40964 -5.13556 7.55279
51 17 2 -3.06575 -1.10176 3.21798 17.3452 -7.76511 6.21663
403 135 1 -1.81581 -4.19192 3.30814 15.6669 4.79682 14.7818
417 139 2 -5.65941 -1.04483 3.45843 -2.54643 5.38677 -1.92104
49 17 1 -2.14787 -1.27063 3.67908 -18.9023 32.4913 -21.3527
405 135 2 -1.49427 -4.40502 4.24754 -2.3209 -6.77541 3.61582
100 34 1 -3.81653 -3.08988 5.75195 6.70479 2.34537 -2.47425
102 34 2 -4.54114 -3.67076 5.33571 -1.89033 4.82745 1.40038
125 42 2 -4.47948 -7.20321 3.3871 8.84484 -8.51709 7.82705
50 17 2 -2.19811 -2.05819 4.29551 -4.05194 -17.6275 14.0191
101 34 2 -4.10198 -2.10341 5.89558 -4.0644 -9.76784 3.96348
484 162 1 -0.235444 -2.37562 5.87425 0.661143 1.63481 -7.50787
577 193 1 -1.9902 -4.47923 7.19976 -16.4336 -6.67217 0.918329
578 193 2 -1.17339 -3.91059 6.97111 -1.95998 5.67996 -8.01673
579 193 2 -2.86765 -4.10503 6.76131 18.2183 3.37962 -0.271353
252 84 2 -2.51144 -4.23897 8.84077 19.6768 -0.769809 73.6702
126 42 2 -5.22305 -5.83227 3.50713 -9.79231 12.2298 2.6359
124 42 1 -4.56123 -6.38914 4.00694 1.39894 -6.82815 -4.62269
96 32 2 -1.63874 -6.33852 6.61537 -1.74857 -11.0383 7.39917
77 26 2 -0.000515265 -1.11774 8.34728 14.2717 10.3769 -9.24079
416 139 2 -6.71802 -0.824154 4.77707 -3.35106 6.72719 -3.98439
415 139 1 -6.05273 -1.45492 4.30493 12.1359 -24.0633 -3.70835
137 46 2 -6.31393 -3.35875 4.21535 -13.6622 -0.0767576 6.80993
136 46 1 -6.8052 -4.26695 4.13465 21.2462 15.3266 -8.69377
65 22 2 -5.90429 -3.65771 7.43091 -0.470772 -5.83495 13.9472
66 22 2 -6.05277 -4.89762 8.69112 -0.0315951 15.3161 -8.82272
64 22 1 -5.63694 -4.57383 7.80914 3.02018 -12.5496 -4.49314
156 52 2 -4.73619 -6.98432 7.71877 -8.6552 11.2675 13.9907
155 52 2 -3.92284 -6.97364 6.29132 -19.5269 -13.3087 11.9323
160 54 1 -6.98442 -1.46242 7.65613 -17.59 -1.69546 -4.36412
400 134 1 -4.41212 -0.738957 7.17955 16.4221 3.99744 -9.35965
401 134 2 -5.39179 -0.702302 7.4304 -16.185 -8.8843 5.28881
513 171 2 -7.07439 -5.80373 5.89744 21.2053 10.3069 -6.65043
75 25 2 -2.34017 -1.50148 7.79857 1.36007 5.82975 8.75959
73 25 1 -1.77343 -0.810257 8.30702 5.95724 -25.0947 -2.14802
565 189 1 0.520984 -6.79417 4.06421 10.2566 6.9969 -18.0086
485 162 2 0.116613 -2.01014 6.75631 5.53748 2.48594 6.19486
486 162 2 0.0738302 -1.70625 5.16114 -6.07312 -3.92953 -1.57995
76 26 1 1.01061 -1.09983 8.05729 -40.7395 4.87786 -21.4728
589 197 1 6.23961 -3.53941 6.62317 -10.5318 -5.53258 -18.7538
162 54 2 7.0615 -0.933929 6.88968 6.53511 3.39484 2.86177
591 197 2 6.26477 -4.46829 7.09352 1.28722 5.85448 -8.02454
590 197 2 6.26582 -3.68569 5.58161 8.16106 0.00135789 25.1602
294 98 2 2.56854 -4.76742 6.4775 -4.95528 -18.6493 -6.9949
292 98 1 2.14162 -5.70298 6.63551 -7.60375 23.3552 48.3113
293 98 2 1.7259 -5.62212 7.60876 14.7415 -6.22563 -37.4859
582 194 2 3.35588 -3.65738 3.29868 10.5201 -4.08758 0.609058
615 205 2 4.54852 -5.50922 3.53869 -6.58007 19.3292 2.98318
23 8 2 4.80182 -4.46305 8.96414 3.44478 -3.39151 0.782779
22 8 1 5.65668 -5.00925 9.12638 -10.5478 13.6477 -7.5487
225 75 2 3.31809 -3.12508 7.61596 -4.31232 0.965416 10.7945
495 165 2 3.35844 -1.12751 6.14714 4.97524 3.30329 -4.69108
224 75 2 4.63797 -3.24581 6.60525 -14.4911 0.134169 2.17027
223 75 1 3.59705 -3.11616 6.6275 16.7718 5.42926 -14.4412
580 194 1 4.19919 -3.22061 3.71807 -32.1059 13.9797 15.7609
581 194 2 3.81246 -2.83055 4.60558 14.9848 -14.7739 -12.2709
512 171 2 5.89542 -5.9646 5.22588 5.36211 -14.5311 11.8728
493 165 1 2.97383 -0.177601 6.11649 -16.3551 -20.0011 20.2467
78 26 2 1.49252 -1.35523 8.87387 24.1001 -10.6978 31.3746
161 54 2 7.02176 -2.3869 7.57673 6.52656 8.76031 -3.17702
442 148 1 3.96415 -0.25385 3.22957 3.55534 -24.8148 -13.7401
613 205 1 4.82122 -6.38453 3.95025 -0.446053 -11.354 -8.41762
494 165 2 2.30067 -0.295415 6.90816 3.97292 8.71784 -13.4132
511 171 1 6.4885 -6.16994 6.06401 -19.8031 -12.2558 -2.89328
291 97 2 2.12076 -6.45429 9.33827 -2.80311 6.94755 0.928881
289 97 1 1.78627 -5.48072 9.49877 8.68956 -22.2786 -16.4413
27 9 2 2.55708 -4.22185 9.41188 7.66699 20.3285 -0.598052
25 9 1 3.08677 -3.30463 9.28064 4.8574 5.22798 22.1648
128 43 2 5.79954 -6.67606 8.75899 19.1438 -15.8622 -3.11701
91 31 1 -2.08825 4.03247 4.73541 5.20977 -2.85706 18.4672
92 31 2 -2.06993 3.17952 4.17115 7.11985 -8.62268 2.4119
93 31 2 -1.54468 3.98001 5.62755 -6.43602 -11.1959 -17.5816
239 80 2 -1.6505 5.39034 4.17926 -21.1481 37.9372 -12.2385
62 21 2 -6.96136 1.10729 4.95958 -12.1772 -15.164 5.99617
566 189 2 -0.357651 7.17968 3.8881 -8.6632 1.53554 -0.191235
238 80 1 -1.79489 6.44581 4.01245 18.747 -35.6644 -5.75829
255 85 2 -7.06981 3.89539 3.86436 -8.1033 0.933663 1.04263
254 85 2 -6.10143 2.69715 3.24825 1.50349 -5.97798 -9.11265
253 85 1 -6.30041 3.24412 4.07596 4.01754 4.18583 6.83206
94 32 1 -1.64902 7.10103 6.58406 8.37497 13.5934 -4.85512
273 91 2 -6.58712 4.99517 6.75553 24.2224 -13.5341 -3.28778
154 52 1 -4.31687 6.88552 7.03996 22.2591 8.21266 -34.3038
240 80 2 -1.69637 6.79588 4.97071 -3.09566 7.60529 7.01228
95 32 2 -2.57658 6.70702 6.75488 -2.21061 1.91283 9.40495
402 134 2 -4.01988 0.196973 7.0844 4.5668 1.52168 -2.20887
190 64 1 -0.456209 3.00457 6.85821 -5.78331 -4.89906 -11.8207
563 188 2 -1.98807 0.526062 3.45398 2.60794 -14.4153 -5.17779
562 188 1 -1.94705 1.53406 3.30971 14.9537 11.2386 -3.36183
468 156 2 -1.73385 1.96848 6.44141 4.12032 3.25902 8.24225
192 64 2 -0.577586 3.38648 7.80759 15.4547 -1.16125 -4.08345
112 38 1 -5.96728 2.3677 8.48622 -10.4367 -29.2105 -29.4272
113 38 2 -5.93297 3.0639 9.21153 7.6011 13.1406 18.5644
114 38 2 -5.37455 2.57616 7.68072 0.758704 11.3087 4.54778
434 145 2 -4.81617 3.64553 5.60449 -0.0834896 4.67429 -3.19204
466 156 1 -2.32978 1.13546 6.34049 -5.79942 -4.19169 -3.20314
467 156 2 -2.15171 0.772775 5.40633 -3.27568 -1.19831 0.703781
453 151 2 -5.7184 0.48035 9.30753 3.84543 2.76553 -13.1341
104 35 2 -1.27534 5.82534 9.40025 5.35899 -2.77613 13.0389
426 142 2 -3.72637 4.08414 7.92434 -1.10524 -0.611346 -7.43538
435 145 2 -4.22278 5.07706 6.34112 -10.9021 -14.6803 0.415793
433 145 1 -4.65617 4.13857 6.48531 -1.18587 7.92502 3.58355
425 142 2 -3.07429 5.07107 9.09094 0.969933 8.98687 8.97669
447 149 2 -1.71542 2.47661 9.56458 8.33606 14.2506 0.181467
424 142 1 -2.96094 4.20474 8.59291 5.76575 -12.5903 0.0143874
74 25 2 -2.02984 0.0681133 7.87682 0.102321 15.9309 -5.88011